<PP_INFO>
Generated using "atomic" code by A. Dal Corso  (espresso distribution)     
Author: D.C.   Generation date: 14Sep2009                                  
F                                                                          
    1        The Pseudo was generated with a Scalar-Relativistic Calculation
    1 1.3000000E+00    L component and cutoff radius for Local Potential
nl pn  l   occ               Rcut            Rcut US             E pseu
2S  1  0  2.00      1.30000000000      1.30000000000     -2.19758139033
2P  2  1  5.00      1.30000000000      1.30000000000     -0.81669138980
</PP_INFO>


<PP_HEADER>
   0                   Version Number
   F                   Element
   NC                  Norm - Conserving pseudopotential
    F                  Nonlinear Core Correction
 SLA  PW   PBX  PBC    PBE  Exchange-Correlation functional
    7.00000000000      Z valence
  -47.93605709062      Total energy
      0.000      0.000 Suggested cutoff for wfc and rho
    1                  Max angular momentum component
 1481                  Number of points in mesh
    4    1             Number of Wavefunctions, Number of Projectors
 Wavefunctions         nl  l   occ
                       2S  0  2.00
                       3S  0  0.00
                       2P  1  5.00
                       3P  1  0.00
</PP_HEADER>


<PP_MESH>
  <PP_R>
  3.72736253225E-05  3.76482314848E-05  3.80266025017E-05  3.84087762105E-05
  3.87947908289E-05  3.91846849587E-05  3.95784975897E-05  3.99762681034E-05
  4.03780362772E-05  4.07838422883E-05  4.11937267177E-05  4.16077305540E-05
  4.20258951981E-05  4.24482624667E-05  4.28748745969E-05  4.33057742503E-05
  4.37410045172E-05  4.41806089211E-05  4.46246314226E-05  4.50731164245E-05
  4.55261087755E-05  4.59836537754E-05  4.64457971790E-05  4.69125852010E-05
  4.73840645206E-05  4.78602822862E-05  4.83412861199E-05  4.88271241224E-05
  4.93178448781E-05  4.98134974594E-05  5.03141314319E-05  5.08197968595E-05
  5.13305443091E-05  5.18464248559E-05  5.23674900884E-05  5.28937921136E-05
  5.34253835620E-05  5.39623175934E-05  5.45046479014E-05  5.50524287197E-05
  5.56057148267E-05  5.61645615516E-05  5.67290247794E-05  5.72991609569E-05
  5.78750270983E-05  5.84566807907E-05  5.90441801998E-05  5.96375840762E-05
  6.02369517606E-05  6.08423431905E-05  6.14538189053E-05  6.20714400533E-05
  6.26952683970E-05  6.33253663197E-05  6.39617968319E-05  6.46046235771E-05
  6.52539108384E-05  6.59097235453E-05  6.65721272794E-05  6.72411882817E-05
  6.79169734588E-05  6.85995503900E-05  6.92889873333E-05  6.99853532331E-05
  7.06887177265E-05  7.13991511506E-05  7.21167245493E-05  7.28415096806E-05
  7.35735790236E-05  7.43130057858E-05  7.50598639104E-05  7.58142280840E-05
  7.65761737436E-05  7.73457770844E-05  7.81231150674E-05  7.89082654269E-05
  7.97013066788E-05  8.05023181278E-05  8.13113798756E-05  8.21285728292E-05
  8.29539787085E-05  8.37876800548E-05  8.46297602390E-05  8.54803034697E-05
  8.63393948020E-05  8.72071201457E-05  8.80835662741E-05  8.89688208325E-05
  8.98629723471E-05  9.07661102339E-05  9.16783248073E-05  9.25997072896E-05
  9.35303498198E-05  9.44703454630E-05  9.54197882194E-05  9.63787730341E-05
  9.73473958065E-05  9.83257533995E-05  9.93139436499E-05  1.00312065377E-04
  1.01320218395E-04  1.02338503519E-04  1.03367022578E-04  1.04405878426E-04
  1.05455174949E-04  1.06515017077E-04  1.07585510796E-04  1.08666763155E-04
  1.09758882281E-04  1.10861977387E-04  1.11976158783E-04  1.13101537888E-04
  1.14238227242E-04  1.15386340513E-04  1.16545992514E-04  1.17717299212E-04
  1.18900377738E-04  1.20095346400E-04  1.21302324698E-04  1.22521433329E-04
  1.23752794205E-04  1.24996530464E-04  1.26252766480E-04  1.27521627878E-04
  1.28803241545E-04  1.30097735643E-04  1.31405239624E-04  1.32725884238E-04
  1.34059801551E-04  1.35407124956E-04  1.36767989186E-04  1.38142530329E-04
  1.39530885840E-04  1.40933194556E-04  1.42349596709E-04  1.43780233941E-04
  1.45225249315E-04  1.46684787336E-04  1.48158993957E-04  1.49648016601E-04
  1.51152004172E-04  1.52671107069E-04  1.54205477204E-04  1.55755268015E-04
  1.57320634483E-04  1.58901733145E-04  1.60498722113E-04  1.62111761087E-04
  1.63741011373E-04  1.65386635895E-04  1.67048799220E-04  1.68727667563E-04
  1.70423408814E-04  1.72136192547E-04  1.73866190044E-04  1.75613574304E-04
  1.77378520068E-04  1.79161203832E-04  1.80961803865E-04  1.82780500230E-04
  1.84617474797E-04  1.86472911265E-04  1.88346995180E-04  1.90239913952E-04
  1.92151856873E-04  1.94083015140E-04  1.96033581870E-04  1.98003752122E-04
  1.99993722915E-04  2.02003693246E-04  2.04033864114E-04  2.06084438540E-04
  2.08155621580E-04  2.10247620357E-04  2.12360644070E-04  2.14494904025E-04
  2.16650613649E-04  2.18827988516E-04  2.21027246363E-04  2.23248607119E-04
  2.25492292922E-04  2.27758528142E-04  2.30047539404E-04  2.32359555613E-04
  2.34694807970E-04  2.37053530004E-04  2.39435957589E-04  2.41842328968E-04
  2.44272884783E-04  2.46727868089E-04  2.49207524387E-04  2.51712101646E-04
  2.54241850325E-04  2.56797023400E-04  2.59377876392E-04  2.61984667388E-04
  2.64617657069E-04  2.67277108736E-04  2.69963288336E-04  2.72676464490E-04
  2.75416908518E-04  2.78184894467E-04  2.80980699137E-04  2.83804602110E-04
  2.86656885781E-04  2.89537835379E-04  2.92447739001E-04  2.95386887642E-04
  2.98355575217E-04  3.01354098599E-04  3.04382757641E-04  3.07441855213E-04
  3.10531697226E-04  3.13652592668E-04  3.16804853631E-04  3.19988795343E-04
  3.23204736201E-04  3.26452997803E-04  3.29733904976E-04  3.33047785814E-04
  3.36394971708E-04  3.39775797380E-04  3.43190600915E-04  3.46639723796E-04
  3.50123510938E-04  3.53642310723E-04  3.57196475034E-04  3.60786359290E-04
  3.64412322483E-04  3.68074727211E-04  3.71773939719E-04  3.75510329931E-04
  3.79284271488E-04  3.83096141789E-04  3.86946322024E-04  3.90835197212E-04
  3.94763156247E-04  3.98730591926E-04  4.02737900996E-04  4.06785484192E-04
  4.10873746276E-04  4.15003096076E-04  4.19173946532E-04  4.23386714732E-04
  4.27641821957E-04  4.31939693720E-04  4.36280759812E-04  4.40665454343E-04
  4.45094215788E-04  4.49567487025E-04  4.54085715385E-04  4.58649352695E-04
  4.63258855323E-04  4.67914684222E-04  4.72617304979E-04  4.77367187861E-04
  4.82164807860E-04  4.87010644741E-04  4.91905183092E-04  4.96848912372E-04
  5.01842326957E-04  5.06885926193E-04  5.11980214444E-04  5.17125701143E-04
  5.22322900843E-04  5.27572333268E-04  5.32874523366E-04  5.38230001361E-04
  5.43639302804E-04  5.49102968631E-04  5.54621545212E-04  5.60195584410E-04
  5.65825643633E-04  5.71512285892E-04  5.77256079856E-04  5.83057599909E-04
  5.88917426208E-04  5.94836144740E-04  6.00814347382E-04  6.06852631960E-04
  6.12951602307E-04  6.19111868324E-04  6.25334046045E-04  6.31618757691E-04
  6.37966631739E-04  6.44378302982E-04  6.50854412593E-04  6.57395608187E-04
  6.64002543890E-04  6.70675880400E-04  6.77416285057E-04  6.84224431908E-04
  6.91101001771E-04  6.98046682311E-04  7.05062168101E-04  7.12148160695E-04
  7.19305368699E-04  7.26534507839E-04  7.33836301035E-04  7.41211478473E-04
  7.48660777676E-04  7.56184943581E-04  7.63784728611E-04  7.71460892750E-04
  7.79214203621E-04  7.87045436561E-04  7.94955374702E-04  8.02944809042E-04
  8.11014538532E-04  8.19165370152E-04  8.27398118992E-04  8.35713608333E-04
  8.44112669731E-04  8.52596143099E-04  8.61164876793E-04  8.69819727692E-04
  8.78561561288E-04  8.87391251773E-04  8.96309682122E-04  9.05317744187E-04
  9.14416338780E-04  9.23606375769E-04  9.32888774166E-04  9.42264462217E-04
  9.51734377500E-04  9.61299467013E-04  9.70960687275E-04  9.80719004414E-04
  9.90575394271E-04  1.00053084249E-03  1.01058634463E-03  1.02074290625E-03
  1.03100154301E-03  1.04136328078E-03  1.05182915575E-03  1.06240021450E-03
  1.07307751417E-03  1.08386212248E-03  1.09475511791E-03  1.10575758976E-03
  1.11687063829E-03  1.12809537482E-03  1.13943292182E-03  1.15088441307E-03
  1.16245099371E-03  1.17413382043E-03  1.18593406150E-03  1.19785289697E-03
  1.20989151873E-03  1.22205113065E-03  1.23433294869E-03  1.24673820107E-03
  1.25926812830E-03  1.27192398339E-03  1.28470703194E-03  1.29761855227E-03
  1.31065983553E-03  1.32383218587E-03  1.33713692052E-03  1.35057536999E-03
  1.36414887812E-03  1.37785880227E-03  1.39170651345E-03  1.40569339645E-03
  1.41982084995E-03  1.43409028672E-03  1.44850313372E-03  1.46306083223E-03
  1.47776483805E-03  1.49261662158E-03  1.50761766802E-03  1.52276947748E-03
  1.53807356516E-03  1.55353146148E-03  1.56914471224E-03  1.58491487878E-03
  1.60084353812E-03  1.61693228316E-03  1.63318272277E-03  1.64959648201E-03
  1.66617520228E-03  1.68292054145E-03  1.69983417408E-03  1.71691779155E-03
  1.73417310222E-03  1.75160183165E-03  1.76920572272E-03  1.78698653584E-03
  1.80494604911E-03  1.82308605848E-03  1.84140837797E-03  1.85991483984E-03
  1.87860729475E-03  1.89748761194E-03  1.91655767948E-03  1.93581940439E-03
  1.95527471285E-03  1.97492555041E-03  1.99477388217E-03  2.01482169298E-03
  2.03507098764E-03  2.05552379109E-03  2.07618214864E-03  2.09704812613E-03
  2.11812381018E-03  2.13941130838E-03  2.16091274949E-03  2.18263028367E-03
  2.20456608271E-03  2.22672234019E-03  2.24910127176E-03  2.27170511533E-03
  2.29453613130E-03  2.31759660280E-03  2.34088883589E-03  2.36441515982E-03
  2.38817792723E-03  2.41217951443E-03  2.43642232158E-03  2.46090877300E-03
  2.48564131735E-03  2.51062242790E-03  2.53585460279E-03  2.56134036525E-03
  2.58708226388E-03  2.61308287289E-03  2.63934479237E-03  2.66587064852E-03
  2.69266309397E-03  2.71972480796E-03  2.74705849670E-03  2.77466689359E-03
  2.80255275947E-03  2.83071888296E-03  2.85916808071E-03  2.88790319764E-03
  2.91692710730E-03  2.94624271210E-03  2.97585294363E-03  3.00576076293E-03
  3.03596916081E-03  3.06648115814E-03  3.09729980614E-03  3.12842818670E-03
  3.15986941269E-03  3.19162662825E-03  3.22370300913E-03  3.25610176300E-03
  3.28882612977E-03  3.32187938188E-03  3.35526482470E-03  3.38898579680E-03
  3.42304567031E-03  3.45744785123E-03  3.49219577982E-03  3.52729293090E-03
  3.56274281421E-03  3.59854897477E-03  3.63471499322E-03  3.67124448621E-03
  3.70814110670E-03  3.74540854440E-03  3.78305052607E-03  3.82107081594E-03
  3.85947321608E-03  3.89826156676E-03  3.93743974684E-03  3.97701167418E-03
  4.01698130601E-03  4.05735263930E-03  4.09812971125E-03  4.13931659958E-03
  4.18091742302E-03  4.22293634169E-03  4.26537755751E-03  4.30824531464E-03
  4.35154389989E-03  4.39527764316E-03  4.43945091785E-03  4.48406814134E-03
  4.52913377537E-03  4.57465232656E-03  4.62062834680E-03  4.66706643372E-03
  4.71397123117E-03  4.76134742967E-03  4.80919976689E-03  4.85753302808E-03
  4.90635204663E-03  4.95566170447E-03  5.00546693262E-03  5.05577271162E-03
  5.10658407212E-03  5.15790609527E-03  5.20974391333E-03  5.26210271013E-03
  5.31498772158E-03  5.36840423623E-03  5.42235759578E-03  5.47685319561E-03
  5.53189648532E-03  5.58749296929E-03  5.64364820721E-03  5.70036781466E-03
  5.75765746364E-03  5.81552288316E-03  5.87396985982E-03  5.93300423836E-03
  5.99263192226E-03  6.05285887435E-03  6.11369111738E-03  6.17513473461E-03
  6.23719587046E-03  6.29988073109E-03  6.36319558505E-03  6.42714676387E-03
  6.49174066272E-03  6.55698374105E-03  6.62288252322E-03  6.68944359915E-03
  6.75667362502E-03  6.82457932389E-03  6.89316748637E-03  6.96244497135E-03
  7.03241870663E-03  7.10309568963E-03  7.17448298813E-03  7.24658774090E-03
  7.31941715849E-03  7.39297852389E-03  7.46727919331E-03  7.54232659686E-03
  7.61812823936E-03  7.69469170104E-03  7.77202463830E-03  7.85013478449E-03
  7.92902995071E-03  8.00871802653E-03  8.08920698083E-03  8.17050486256E-03
  8.25261980159E-03  8.33556000948E-03  8.41933378032E-03  8.50394949155E-03
  8.58941560481E-03  8.67574066679E-03  8.76293331007E-03  8.85100225399E-03
  8.93995630550E-03  9.02980436010E-03  9.12055540266E-03  9.21221850835E-03
  9.30480284358E-03  9.39831766684E-03  9.49277232970E-03  9.58817627771E-03
  9.68453905133E-03  9.78187028693E-03  9.88017971771E-03  9.97947717469E-03
  1.00797725877E-02  1.01810759864E-02  1.02833975011E-02  1.03867473642E-02
  1.04911359107E-02  1.05965735795E-02  1.07030709145E-02  1.08106385655E-02
  1.09192872894E-02  1.10290279511E-02  1.11398715248E-02  1.12518290949E-02
  1.13649118573E-02  1.14791311203E-02  1.15944983061E-02  1.17110249513E-02
  1.18287227088E-02  1.19476033484E-02  1.20676787583E-02  1.21889609462E-02
  1.23114620403E-02  1.24351942908E-02  1.25601700712E-02  1.26864018790E-02
  1.28139023376E-02  1.29426841971E-02  1.30727603358E-02  1.32041437614E-02
  1.33368476124E-02  1.34708851593E-02  1.36062698059E-02  1.37430150908E-02
  1.38811346887E-02  1.40206424117E-02  1.41615522105E-02  1.43038781764E-02
  1.44476345420E-02  1.45928356832E-02  1.47394961200E-02  1.48876305188E-02
  1.50372536930E-02  1.51883806051E-02  1.53410263679E-02  1.54952062461E-02
  1.56509356579E-02  1.58082301763E-02  1.59671055309E-02  1.61275776093E-02
  1.62896624589E-02  1.64533762884E-02  1.66187354692E-02  1.67857565374E-02
  1.69544561952E-02  1.71248513128E-02  1.72969589298E-02  1.74707962571E-02
  1.76463806785E-02  1.78237297528E-02  1.80028612149E-02  1.81837929781E-02
  1.83665431357E-02  1.85511299630E-02  1.87375719187E-02  1.89258876473E-02
  1.91160959803E-02  1.93082159389E-02  1.95022667352E-02  1.96982677744E-02
  1.98962386568E-02  2.00961991797E-02  2.02981693392E-02  2.05021693326E-02
  2.07082195599E-02  2.09163406265E-02  2.11265533446E-02  2.13388787356E-02
  2.15533380323E-02  2.17699526808E-02  2.19887443426E-02  2.22097348972E-02
  2.24329464439E-02  2.26584013038E-02  2.28861220228E-02  2.31161313730E-02
  2.33484523556E-02  2.35831082030E-02  2.38201223808E-02  2.40595185907E-02
  2.43013207725E-02  2.45455531066E-02  2.47922400165E-02  2.50414061710E-02
  2.52930764871E-02  2.55472761319E-02  2.58040305255E-02  2.60633653438E-02
  2.63253065202E-02  2.65898802493E-02  2.68571129886E-02  2.71270314615E-02
  2.73996626602E-02  2.76750338480E-02  2.79531725622E-02  2.82341066170E-02
  2.85178641060E-02  2.88044734051E-02  2.90939631756E-02  2.93863623666E-02
  2.96817002184E-02  2.99800062650E-02  3.02813103371E-02  3.05856425655E-02
  3.08930333837E-02  3.12035135309E-02  3.15171140555E-02  3.18338663178E-02
  3.21538019932E-02  3.24769530757E-02  3.28033518804E-02  3.31330310478E-02
  3.34660235458E-02  3.38023626741E-02  3.41420820668E-02  3.44852156962E-02
  3.48317978758E-02  3.51818632643E-02  3.55354468685E-02  3.58925840469E-02
  3.62533105137E-02  3.66176623417E-02  3.69856759665E-02  3.73573881896E-02
  3.77328361828E-02  3.81120574910E-02  3.84950900367E-02  3.88819721235E-02
  3.92727424399E-02  3.96674400632E-02  4.00661044637E-02  4.04687755079E-02
  4.08754934635E-02  4.12862990024E-02  4.17012332057E-02  4.21203375670E-02
  4.25436539972E-02  4.29712248283E-02  4.34030928176E-02  4.38393011524E-02
  4.42798934538E-02  4.47249137815E-02  4.51744066378E-02  4.56284169725E-02
  4.60869901868E-02  4.65501721386E-02  4.70180091464E-02  4.74905479943E-02
  4.79678359366E-02  4.84499207024E-02  4.89368505007E-02  4.94286740248E-02
  4.99254404575E-02  5.04271994758E-02  5.09340012561E-02  5.14458964790E-02
  5.19629363344E-02  5.24851725268E-02  5.30126572801E-02  5.35454433434E-02
  5.40835839956E-02  5.46271330512E-02  5.51761448657E-02  5.57306743407E-02
  5.62907769295E-02  5.68565086429E-02  5.74279260546E-02  5.80050863068E-02
  5.85880471159E-02  5.91768667785E-02  5.97716041772E-02  6.03723187861E-02
  6.09790706771E-02  6.15919205261E-02  6.22109296184E-02  6.28361598555E-02
  6.34676737610E-02  6.41055344867E-02  6.47498058193E-02  6.54005521865E-02
  6.60578386634E-02  6.67217309791E-02  6.73922955236E-02  6.80695993538E-02
  6.87537102007E-02  6.94446964759E-02  7.01426272785E-02  7.08475724024E-02
  7.15596023426E-02  7.22787883026E-02  7.30052022017E-02  7.37389166818E-02
  7.44800051151E-02  7.52285416109E-02  7.59846010236E-02  7.67482589597E-02
  7.75195917857E-02  7.82986766354E-02  7.90855914181E-02  7.98804148258E-02
  8.06832263415E-02  8.14941062471E-02  8.23131356313E-02  8.31403963976E-02
  8.39759712729E-02  8.48199438152E-02  8.56723984226E-02  8.65334203413E-02
  8.74030956741E-02  8.82815113893E-02  8.91687553292E-02  9.00649162189E-02
  9.09700836753E-02  9.18843482159E-02  9.28078012679E-02  9.37405351774E-02
  9.46826432185E-02  9.56342196028E-02  9.65953594888E-02  9.75661589912E-02
  9.85467151908E-02  9.95371261441E-02  1.00537490893E-01  1.01547909475E-01
  1.02568482932E-01  1.03599313323E-01  1.04640503732E-01  1.05692158278E-01
  1.06754382128E-01  1.07827281505E-01  1.08910963701E-01  1.10005537083E-01
  1.11111111111E-01  1.12227796343E-01  1.13355704447E-01  1.14494948217E-01
  1.15645641577E-01  1.16807899597E-01  1.17981838505E-01  1.19167575695E-01
  1.20365229742E-01  1.21574920412E-01  1.22796768675E-01  1.24030896718E-01
  1.25277427953E-01  1.26536487036E-01  1.27808199873E-01  1.29092693636E-01
  1.30390096777E-01  1.31700539036E-01  1.33024151458E-01  1.34361066406E-01
  1.35711417573E-01  1.37075339995E-01  1.38452970065E-01  1.39844445548E-01
  1.41249905591E-01  1.42669490743E-01  1.44103342963E-01  1.45551605637E-01
  1.47014423593E-01  1.48491943114E-01  1.49984311953E-01  1.51491679348E-01
  1.53014196037E-01  1.54552014274E-01  1.56105287840E-01  1.57674172066E-01
  1.59258823840E-01  1.60859401629E-01  1.62476065493E-01  1.64108977098E-01
  1.65758299738E-01  1.67424198346E-01  1.69106839513E-01  1.70806391505E-01
  1.72523024279E-01  1.74256909499E-01  1.76008220555E-01  1.77777132580E-01
  1.79563822466E-01  1.81368468884E-01  1.83191252300E-01  1.85032354994E-01
  1.86891961078E-01  1.88770256513E-01  1.90667429132E-01  1.92583668652E-01
  1.94519166700E-01  1.96474116826E-01  1.98448714528E-01  2.00443157266E-01
  2.02457644488E-01  2.04492377642E-01  2.06547560205E-01  2.08623397696E-01
  2.10720097701E-01  2.12837869890E-01  2.14976926045E-01  2.17137480071E-01
  2.19319748026E-01  2.21523948138E-01  2.23750300830E-01  2.25999028739E-01
  2.28270356738E-01  2.30564511964E-01  2.32881723833E-01  2.35222224068E-01
  2.37586246722E-01  2.39974028198E-01  2.42385807278E-01  2.44821825140E-01
  2.47282325388E-01  2.49767554075E-01  2.52277759726E-01  2.54813193363E-01
  2.57374108531E-01  2.59960761325E-01  2.62573410412E-01  2.65212317058E-01
  2.67877745157E-01  2.70569961254E-01  2.73289234573E-01  2.76035837043E-01
  2.78810043326E-01  2.81612130846E-01  2.84442379814E-01  2.87301073257E-01
  2.90188497047E-01  2.93104939928E-01  2.96050693548E-01  2.99026052483E-01
  3.02031314273E-01  3.05066779446E-01  3.08132751552E-01  3.11229537189E-01
  3.14357446039E-01  3.17516790896E-01  3.20707887696E-01  3.23931055553E-01
  3.27186616785E-01  3.30474896951E-01  3.33796224883E-01  3.37150932715E-01
  3.40539355921E-01  3.43961833347E-01  3.47418707243E-01  3.50910323299E-01
  3.54437030680E-01  3.57999182059E-01  3.61597133654E-01  3.65231245265E-01
  3.68901880304E-01  3.72609405839E-01  3.76354192625E-01  3.80136615143E-01
  3.83957051640E-01  3.87815884162E-01  3.91713498596E-01  3.95650284706E-01
  3.99626636174E-01  4.03642950639E-01  4.07699629735E-01  4.11797079134E-01
  4.15935708585E-01  4.20115931952E-01  4.24338167263E-01  4.28602836744E-01
  4.32910366866E-01  4.37261188386E-01  4.41655736388E-01  4.46094450333E-01
  4.50577774094E-01  4.55106156008E-01  4.59680048917E-01  4.64299910214E-01
  4.68966201889E-01  4.73679390574E-01  4.78439947594E-01  4.83248349007E-01
  4.88105075658E-01  4.93010613223E-01  4.97965452260E-01  5.02970088257E-01
  5.08025021682E-01  5.13130758033E-01  5.18287807888E-01  5.23496686955E-01
  5.28757916126E-01  5.34072021531E-01  5.39439534582E-01  5.44860992036E-01
  5.50336936044E-01  5.55867914204E-01  5.61454479618E-01  5.67097190949E-01
  5.72796612471E-01  5.78553314131E-01  5.84367871605E-01  5.90240866353E-01
  5.96172885680E-01  6.02164522792E-01  6.08216376859E-01  6.14329053069E-01
  6.20503162697E-01  6.26739323159E-01  6.33038158075E-01  6.39400297334E-01
  6.45826377156E-01  6.52317040154E-01  6.58872935399E-01  6.65494718487E-01
  6.72183051601E-01  6.78938603581E-01  6.85762049987E-01  6.92654073169E-01
  6.99615362336E-01  7.06646613622E-01  7.13748530159E-01  7.20921822143E-01
  7.28167206910E-01  7.35485409005E-01  7.42877160253E-01  7.50343199837E-01
  7.57884274366E-01  7.65501137953E-01  7.73194552293E-01  7.80965286732E-01
  7.88814118351E-01  7.96741832039E-01  8.04749220573E-01  8.12837084701E-01
  8.21006233215E-01  8.29257483035E-01  8.37591659296E-01  8.46009595420E-01
  8.54512133209E-01  8.63100122923E-01  8.71774423369E-01  8.80535901983E-01
  8.89385434922E-01  8.98323907145E-01  9.07352212508E-01  9.16471253847E-01
  9.25681943076E-01  9.34985201271E-01  9.44381958765E-01  9.53873155242E-01
  9.63459739829E-01  9.73142671193E-01  9.82922917636E-01  9.92801457189E-01
  1.00277927771E+00  1.01285737700E+00  1.02303676288E+00  1.03331845328E+00
  1.04370347638E+00  1.05419287071E+00  1.06478768520E+00  1.07548897934E+00
  1.08629782328E+00  1.09721529791E+00  1.10824249498E+00  1.11938051722E+00
  1.13063047845E+00  1.14199350367E+00  1.15347072919E+00  1.16506330275E+00
  1.17677238360E+00  1.18859914268E+00  1.20054476266E+00  1.21261043812E+00
  1.22479737563E+00  1.23710679390E+00  1.24953992388E+00  1.26209800889E+00
  1.27478230475E+00  1.28759407991E+00  1.30053461555E+00  1.31360520574E+00
  1.32680715754E+00  1.34014179116E+00  1.35361044008E+00  1.36721445117E+00
  1.38095518484E+00  1.39483401519E+00  1.40885233009E+00  1.42301153141E+00
  1.43731303506E+00  1.45175827121E+00  1.46634868441E+00  1.48108573369E+00
  1.49597089278E+00  1.51100565020E+00  1.52619150945E+00  1.54152998913E+00
  1.55702262308E+00  1.57267096060E+00  1.58847656652E+00  1.60444102142E+00
  1.62056592176E+00  1.63685288005E+00  1.65330352499E+00  1.66991950165E+00
  1.68670247166E+00  1.70365411332E+00  1.72077612182E+00  1.73807020935E+00
  1.75553810536E+00  1.77318155664E+00  1.79100232756E+00  1.80900220020E+00
  1.82718297457E+00  1.84554646875E+00  1.86409451913E+00  1.88282898050E+00
  1.90175172635E+00  1.92086464895E+00  1.94016965962E+00  1.95966868887E+00
  1.97936368662E+00  1.99925662239E+00  2.01934948549E+00  2.03964428522E+00
  2.06014305108E+00  2.08084783296E+00  2.10176070136E+00  2.12288374758E+00
  2.14421908394E+00  2.16576884400E+00  2.18753518275E+00  2.20952027684E+00
  2.23172632480E+00  2.25415554725E+00  2.27681018713E+00  2.29969250993E+00
  2.32280480390E+00  2.34614938028E+00  2.36972857356E+00  2.39354474167E+00
  2.41760026624E+00  2.44189755286E+00  2.46643903127E+00  2.49122715564E+00
  2.51626440480E+00  2.54155328249E+00  2.56709631764E+00  2.59289606455E+00
  2.61895510323E+00  2.64527603960E+00  2.67186150578E+00  2.69871416034E+00
  2.72583668857E+00  2.75323180273E+00  2.78090224237E+00  2.80885077455E+00
  2.83708019415E+00  2.86559332413E+00  2.89439301584E+00  2.92348214925E+00
  2.95286363332E+00  2.98254040621E+00  3.01251543563E+00  3.04279171910E+00
  3.07337228428E+00  3.10426018925E+00  3.13545852282E+00  3.16697040486E+00
  3.19879898658E+00  3.23094745087E+00  3.26341901259E+00  3.29621691893E+00
  3.32934444971E+00  3.36280491771E+00  3.39660166901E+00  3.43073808330E+00
  3.46521757426E+00  3.50004358986E+00  3.53521961274E+00  3.57074916053E+00
  3.60663578621E+00  3.64288307847E+00  3.67949466208E+00  3.71647419822E+00
  3.75382538487E+00  3.79155195719E+00  3.82965768787E+00  3.86814638751E+00
  3.90702190501E+00  3.94628812796E+00  3.98594898301E+00  4.02600843628E+00
  4.06647049374E+00  4.10733920165E+00  4.14861864689E+00  4.19031295746E+00
  4.23242630282E+00  4.27496289434E+00  4.31792698570E+00  4.36132287337E+00
  4.40515489695E+00  4.44942743970E+00  4.49414492890E+00  4.53931183633E+00
  4.58493267873E+00  4.63101201823E+00  4.67755446278E+00  4.72456466667E+00
  4.77204733097E+00  4.82000720398E+00  4.86844908173E+00  4.91737780844E+00
  4.96679827703E+00  5.01671542959E+00  5.06713425787E+00  5.11805980380E+00
  5.16949715998E+00  5.22145147018E+00  5.27392792987E+00  5.32693178676E+00
  5.38046834126E+00  5.43454294708E+00  5.48916101173E+00  5.54432799705E+00
  5.60004941979E+00  5.65633085213E+00  5.71317792228E+00  5.77059631498E+00
  5.82859177212E+00  5.88717009330E+00  5.94633713639E+00  6.00609881815E+00
  6.06646111479E+00  6.12743006261E+00  6.18901175853E+00  6.25121236079E+00
  6.31403808950E+00  6.37749522727E+00  6.44159011988E+00  6.50632917688E+00
  6.57171887221E+00  6.63776574491E+00  6.70447639971E+00  6.77185750774E+00
  6.83991580716E+00  6.90865810386E+00  6.97809127213E+00  7.04822225535E+00
  7.11905806666E+00  7.19060578971E+00  7.26287257933E+00  7.33586566227E+00
  7.40959233788E+00  7.48405997890E+00  7.55927603216E+00  7.63524801932E+00
  7.71198353764E+00  7.78949026074E+00  7.86777593936E+00  7.94684840214E+00
  8.02671555637E+00  8.10738538885E+00  8.18886596662E+00  8.27116543782E+00
  8.35429203245E+00  8.43825406324E+00  8.52305992648E+00  8.60871810281E+00
  8.69523715812E+00  8.78262574440E+00  8.87089260056E+00  8.96004655339E+00
  9.05009651833E+00  9.14105150047E+00  9.23292059537E+00  9.32571299003E+00
  9.41943796376E+00  9.51410488913E+00  9.60972323293E+00  9.70630255705E+00
  9.80385251952E+00  9.90238287541E+00  1.00019034778E+01  1.01024242789E+01
  1.02039553309E+01  1.03065067869E+01  1.04100889022E+01  1.05147120350E+01
  1.06203866478E+01  1.07271233081E+01  1.08349326897E+01  1.09438255735E+01
  1.10538128491E+01  1.11649055152E+01  1.12771146811E+01  1.13904515678E+01
  1.15049275093E+01  1.16205539530E+01  1.17373424619E+01  1.18553047147E+01
  1.19744525079E+01  1.20947977564E+01  1.22163524947E+01  1.23391288784E+01
  1.24631391853E+01  1.25883958165E+01  1.27149112978E+01  1.28426982808E+01
  1.29717695443E+01  1.31021379956E+01  1.32338166716E+01  1.33668187404E+01
  1.35011575021E+01  1.36368463908E+01  1.37738989755E+01  1.39123289616E+01
  1.40521501922E+01  1.41933766496E+01  1.43360224564E+01  1.44801018774E+01
  1.46256293206E+01  1.47726193390E+01  1.49210866317E+01  1.50710460454E+01
  1.52225125763E+01  1.53755013711E+01  1.55300277289E+01  1.56861071024E+01
  1.58437550997E+01  1.60029874857E+01  1.61638201837E+01  1.63262692773E+01
  1.64903510114E+01  1.66560817943E+01  1.68234781993E+01  1.69925569662E+01
  1.71633350029E+01  1.73358293874E+01  1.75100573693E+01  1.76860363715E+01
  1.78637839921E+01  1.80433180059E+01  1.82246563667E+01  1.84078172082E+01
  1.85928188468E+01  1.87796797828E+01  1.89684187024E+01  1.91590544797E+01
  1.93516061783E+01  1.95460930538E+01  1.97425345548E+01  1.99409503258E+01
  2.01413602084E+01  2.03437842437E+01  2.05482426745E+01  2.07547559467E+01
  2.09633447117E+01  2.11740298287E+01  2.13868323664E+01  2.16017736050E+01
  2.18188750391E+01  2.20381583788E+01  2.22596455528E+01  2.24833587098E+01
  2.27093202214E+01  2.29375526840E+01  2.31680789210E+01  2.34009219852E+01
  2.36361051611E+01  2.38736519671E+01  2.41135861583E+01  2.43559317282E+01
  2.46007129116E+01  2.48479541867E+01  2.50976802780E+01  2.53499161582E+01
  2.56046870512E+01  2.58620184342E+01  2.61219360406E+01  2.63844658624E+01
  2.66496341527E+01  2.69174674287E+01  2.71879924738E+01  2.74612363408E+01
  2.77372263544E+01  2.80159901137E+01  2.82975554954E+01  2.85819506562E+01
  2.88692040359E+01  2.91593443600E+01  2.94524006429E+01  2.97484021904E+01
  3.00473786029E+01  3.03493597783E+01  3.06543759150E+01  3.09624575148E+01
  3.12736353861E+01  3.15879406471E+01  3.19054047285E+01  3.22260593769E+01
  3.25499366581E+01  3.28770689601E+01  3.32074889963E+01  3.35412298092E+01
  3.38783247730E+01  3.42188075975E+01  3.45627123313E+01  3.49100733651E+01
  3.52609254353E+01  3.56153036275E+01  3.59732433797E+01  3.63347804862E+01
  3.66999511011E+01  3.70687917416E+01  3.74413392922E+01  3.78176310080E+01
  3.81977045183E+01  3.85815978310E+01  3.89693493355E+01  3.93609978075E+01
  3.97565824121E+01  4.01561427080E+01  4.05597186517E+01  4.09673506010E+01
  4.13790793196E+01  4.17949459805E+01  4.22149921709E+01  4.26392598957E+01
  4.30677915820E+01  4.35006300833E+01  4.39378186839E+01  4.43794011030E+01
  4.48254214992E+01  4.52759244749E+01  4.57309550807E+01  4.61905588202E+01
  4.66547816541E+01  4.71236700050E+01  4.75972707621E+01  4.80756312861E+01
  4.85587994132E+01  4.90468234607E+01  4.95397522314E+01  5.00376350186E+01
  5.05405216111E+01  5.10484622978E+01  5.15615078733E+01  5.20797096425E+01
  5.26031194261E+01  5.31317895655E+01  5.36657729281E+01  5.42051229127E+01
  5.47498934548E+01  5.53001390319E+01  5.58559146689E+01  5.64172759440E+01
  5.69842789936E+01  5.75569805187E+01  5.81354377898E+01  5.87197086531E+01
  5.93098515362E+01  5.99059254538E+01  6.05079900140E+01  6.11161054236E+01
  6.17303324946E+01  6.23507326503E+01  6.29773679313E+01  6.36103010015E+01
  6.42495951549E+01  6.48953143213E+01  6.55475230732E+01  6.62062866320E+01
  6.68716708747E+01  6.75437423402E+01  6.82225682362E+01  6.89082164459E+01
  6.96007555346E+01  7.03002547569E+01  7.10067840633E+01  7.17204141072E+01
  7.24412162524E+01  7.31692625795E+01  7.39046258938E+01  7.46473797323E+01
  7.53975983710E+01  7.61553568324E+01  7.69207308929E+01  7.76937970907E+01
  7.84746327328E+01  7.92633159037E+01  8.00599254721E+01  8.08645410999E+01
  8.16772432491E+01  8.24981131907E+01  8.33272330124E+01  8.41646856269E+01
  8.50105547800E+01  8.58649250595E+01  8.67278819030E+01  8.75995116070E+01
  8.84799013351E+01  8.93691391271E+01  9.02673139075E+01  9.11745154945E+01
  9.20908346091E+01  9.30163628838E+01  9.39511928723E+01  9.48954180585E+01
  9.58491328655E+01  9.68124326656E+01  9.77854137898E+01  9.87681735367E+01
  9.97608101834E+01
  </PP_R>
  <PP_RAB>
  3.72736253225E-07  3.76482314848E-07  3.80266025017E-07  3.84087762105E-07