<PP_INFO>
Generated using "atomic" code by A. Dal Corso  (espresso distribution)     
Author: anonymous   Generation date: 18May2009                             
S                                                                          
    1        The Pseudo was generated with a Scalar-Relativistic Calculation
    1 1.4200000E+00    L component and cutoff radius for Local Potential
nl pn  l   occ               Rcut            Rcut US             E pseu
3S  1  0  1.50      1.34000000000      1.34000000000     -2.05546515930
3D  3  2  0.00      1.83000000000      1.83000000000     -0.30392350015
3P  2  1  3.50      1.42000000000      1.42000000000     -1.25586520694
</PP_INFO>


<PP_HEADER>
   0                   Version Number
   S                   Element
   NC                  Norm - Conserving pseudopotential
    T                  Nonlinear Core Correction
 SLA  PW   PBX  PBC    PBE  Exchange-Correlation functional
    6.00000000000      Z valence
  -36.88855836621      Total energy
      0.000      0.000 Suggested cutoff for wfc and rho
    2                  Max angular momentum component
 1151                  Number of points in mesh
    3    2             Number of Wavefunctions, Number of Projectors
 Wavefunctions         nl  l   occ
                       3S  0  1.50
                       3D  2  0.00
                       3P  1  3.50
</PP_HEADER>


<PP_MESH>
  <PP_R>
  5.69926228472E-05  5.77095017918E-05  5.84353979635E-05  5.91704247851E-05
  5.99146971059E-05  6.06683312200E-05  6.14314448843E-05  6.22041573368E-05
  6.29865893155E-05  6.37788630769E-05  6.45811024155E-05  6.53934326827E-05
  6.62159808067E-05  6.70488753125E-05  6.78922463415E-05  6.87462256721E-05
  6.96109467403E-05  7.04865446606E-05  7.13731562469E-05  7.22709200340E-05
  7.31799762994E-05  7.41004670851E-05  7.50325362194E-05  7.59763293403E-05
  7.69319939171E-05  7.78996792745E-05  7.88795366153E-05  7.98717190442E-05
  8.08763815916E-05  8.18936812382E-05  8.29237769392E-05  8.39668296490E-05
  8.50230023467E-05  8.60924600616E-05  8.71753698985E-05  8.82719010643E-05
  8.93822248942E-05  9.05065148787E-05  9.16449466902E-05  9.27976982111E-05
  9.39649495611E-05  9.51468831257E-05  9.63436835843E-05  9.75555379395E-05
  9.87826355460E-05  1.00025168140E-04  1.01283329871E-04  1.02557317327E-04
  1.03847329573E-04  1.05153568176E-04  1.06476237238E-04  1.07815543428E-04
  1.09171696016E-04  1.10544906904E-04  1.11935390659E-04  1.13343364546E-04
  1.14769048564E-04  1.16212665480E-04  1.17674440861E-04  1.19154603113E-04
  1.20653383514E-04  1.22171016252E-04  1.23707738460E-04  1.25263790253E-04
  1.26839414768E-04  1.28434858201E-04  1.30050369841E-04  1.31686202115E-04
  1.33342610627E-04  1.35019854193E-04  1.36718194886E-04  1.38437898076E-04
  1.40179232468E-04  1.41942470150E-04  1.43727886633E-04  1.45535760890E-04
  1.47366375406E-04  1.49220016217E-04  1.51096972960E-04  1.52997538913E-04
  1.54922011042E-04  1.56870690050E-04  1.58843880423E-04  1.60841890475E-04
  1.62865032401E-04  1.64913622318E-04  1.66987980325E-04  1.69088430543E-04
  1.71215301173E-04  1.73368924542E-04  1.75549637158E-04  1.77757779762E-04
  1.79993697381E-04  1.82257739381E-04  1.84550259523E-04  1.86871616020E-04
  1.89222171586E-04  1.91602293502E-04  1.94012353666E-04  1.96452728654E-04
  1.98923799782E-04  2.01425953158E-04  2.03959579749E-04  2.06525075439E-04
  2.09122841092E-04  2.11753282615E-04  2.14416811019E-04  2.17113842486E-04
  2.19844798432E-04  2.22610105576E-04  2.25410196001E-04  2.28245507228E-04
  2.31116482280E-04  2.34023569753E-04  2.36967223884E-04  2.39947904627E-04
  2.42966077717E-04  2.46022214752E-04  2.49116793258E-04  2.52250296770E-04
  2.55423214904E-04  2.58636043435E-04  2.61889284374E-04  2.65183446047E-04
  2.68519043172E-04  2.71896596944E-04  2.75316635113E-04  2.78779692066E-04
  2.82286308913E-04  2.85837033571E-04  2.89432420846E-04  2.93073032526E-04
  2.96759437463E-04  3.00492211667E-04  3.04271938389E-04  3.08099208222E-04
  3.11974619182E-04  3.15898776811E-04  3.19872294267E-04  3.23895792420E-04
  3.27969899949E-04  3.32095253442E-04  3.36272497494E-04  3.40502284809E-04
  3.44785276298E-04  3.49122141187E-04  3.53513557122E-04  3.57960210269E-04
  3.62462795428E-04  3.67022016135E-04  3.71638584780E-04  3.76313222709E-04
  3.81046660345E-04  3.85839637297E-04  3.90692902477E-04  3.95607214218E-04
  4.00583340391E-04  4.05622058526E-04  4.10724155933E-04  4.15890429825E-04
  4.21121687443E-04  4.26418746181E-04  4.31782433716E-04  4.37213588135E-04
  4.42713058066E-04  4.48281702813E-04  4.53920392488E-04  4.59630008149E-04
  4.65411441933E-04  4.71265597202E-04  4.77193388679E-04  4.83195742594E-04
  4.89273596827E-04  4.95427901054E-04  5.01659616900E-04  5.07969718081E-04
  5.14359190564E-04  5.20829032717E-04  5.27380255466E-04  5.34013882453E-04
  5.40730950195E-04  5.47532508249E-04  5.54419619371E-04  5.61393359686E-04
  5.68454818856E-04  5.75605100248E-04  5.82845321108E-04  5.90176612735E-04
  5.97600120659E-04  6.05117004817E-04  6.12728439739E-04  6.20435614726E-04
  6.28239734040E-04  6.36142017090E-04  6.44143698625E-04  6.52246028923E-04
  6.60450273991E-04  6.68757715757E-04  6.77169652277E-04  6.85687397933E-04
  6.94312283640E-04  7.03045657054E-04  7.11888882782E-04  7.20843342596E-04
  7.29910435650E-04  7.39091578694E-04  7.48388206300E-04  7.57801771087E-04
  7.67333743942E-04  7.76985614255E-04  7.86758890152E-04  7.96655098726E-04
  8.06675786280E-04  8.16822518567E-04  8.27096881034E-04  8.37500479071E-04
  8.48034938263E-04  8.58701904638E-04  8.69503044934E-04  8.80440046849E-04
  8.91514619312E-04  9.02728492749E-04  9.14083419350E-04  9.25581173344E-04
  9.37223551280E-04  9.49012372302E-04  9.60949478439E-04  9.73036734886E-04
  9.85276030303E-04  9.97669277105E-04  1.01021841176E-03  1.02292539510E-03
  1.03579221261E-03  1.04882087476E-03  1.06201341731E-03  1.07537190162E-03
  1.08889841497E-03  1.10259507091E-03  1.11646400958E-03  1.13050739802E-03
  1.14472743055E-03  1.15912632906E-03  1.17370634342E-03  1.18846975178E-03
  1.20341886096E-03  1.21855600679E-03  1.23388355447E-03  1.24940389896E-03
  1.26511946536E-03  1.28103270925E-03  1.29714611711E-03  1.31346220668E-03
  1.32998352740E-03  1.34671266075E-03  1.36365222069E-03  1.38080485407E-03
  1.39817324101E-03  1.41576009537E-03  1.43356816512E-03  1.45160023282E-03
  1.46985911600E-03  1.48834766766E-03  1.50706877668E-03  1.52602536825E-03
  1.54522040440E-03  1.56465688437E-03  1.58433784517E-03  1.60426636198E-03
  1.62444554867E-03  1.64487855829E-03  1.66556858352E-03  1.68651885724E-03
  1.70773265296E-03  1.72921328538E-03  1.75096411089E-03  1.77298852811E-03
  1.79528997839E-03  1.81787194638E-03  1.84073796057E-03  1.86389159381E-03
  1.88733646389E-03  1.91107623415E-03  1.93511461395E-03  1.95945535935E-03
  1.98410227363E-03  2.00905920793E-03  2.03433006182E-03  2.05991878392E-03
  2.08582937252E-03  2.11206587620E-03  2.13863239448E-03  2.16553307842E-03
  2.19277213130E-03  2.22035380930E-03  2.24828242209E-03  2.27656233359E-03
  2.30519796258E-03  2.33419378344E-03  2.36355432683E-03  2.39328418040E-03
  2.42338798948E-03  2.45387045787E-03  2.48473634851E-03  2.51599048426E-03
  2.54763774865E-03  2.57968308661E-03  2.61213150531E-03  2.64498807486E-03
  2.67825792919E-03  2.71194626677E-03  2.74605835146E-03  2.78059951336E-03
  2.81557514960E-03  2.85099072518E-03  2.88685177386E-03  2.92316389900E-03
  2.95993277445E-03  2.99716414541E-03  3.03486382938E-03  3.07303771699E-03
  3.11169177299E-03  3.15083203717E-03  3.19046462526E-03  3.23059572994E-03
  3.27123162178E-03  3.31237865021E-03  3.35404324455E-03  3.39623191496E-03
  3.43895125353E-03  3.48220793522E-03  3.52600871899E-03  3.57036044879E-03
  3.61527005468E-03  3.66074455387E-03  3.70679105184E-03  3.75341674346E-03
  3.80062891408E-03  3.84843494070E-03  3.89684229310E-03  3.94585853505E-03
  3.99549132542E-03  4.04574841944E-03  4.09663766988E-03  4.14816702829E-03
  4.20034454623E-03  4.25317837656E-03  4.30667677467E-03  4.36084809978E-03
  4.41570081628E-03  4.47124349501E-03  4.52748481464E-03  4.58443356298E-03
  4.64209863840E-03  4.70048905117E-03  4.75961392491E-03  4.81948249802E-03
  4.88010412507E-03  4.94148827832E-03  5.00364454917E-03  5.06658264966E-03
  5.13031241399E-03  5.19484380008E-03  5.26018689108E-03  5.32635189699E-03
  5.39334915621E-03  5.46118913721E-03  5.52988244013E-03  5.59943979843E-03
  5.66987208059E-03  5.74119029180E-03  5.81340557567E-03  5.88652921599E-03
  5.96057263847E-03  6.03554741256E-03  6.11146525321E-03  6.18833802274E-03
  6.26617773268E-03  6.34499654563E-03  6.42480677721E-03  6.50562089791E-03
  6.58745153512E-03  6.67031147503E-03  6.75421366468E-03  6.83917121395E-03
  6.92519739765E-03  7.01230565752E-03  7.10050960442E-03  7.18982302040E-03
  7.28025986084E-03  7.37183425671E-03  7.46456051667E-03  7.55845312940E-03
  7.65352676581E-03  7.74979628135E-03  7.84727671832E-03  7.94598330825E-03
  8.04593147424E-03  8.14713683339E-03  8.24961519924E-03  8.35338258425E-03
  8.45845520229E-03  8.56484947116E-03  8.67258201518E-03  8.78166966779E-03
  8.89212947416E-03  9.00397869384E-03  9.11723480351E-03  9.23191549967E-03
  9.34803870141E-03  9.46562255322E-03  9.58468542781E-03  9.70524592899E-03
  9.82732289460E-03  9.95093539941E-03  1.00761027581E-02  1.02028445284E-02
  1.03311805138E-02  1.04611307673E-02  1.05927155937E-02  1.07259555535E-02
  1.08608714657E-02  1.09974844111E-02  1.11358157358E-02  1.12758870544E-02
  1.14177202533E-02  1.15613374942E-02  1.17067612176E-02  1.18540141463E-02
  1.20031192888E-02  1.21540999431E-02  1.23069797003E-02  1.24617824480E-02
  1.26185323747E-02  1.27772539727E-02  1.29379720426E-02  1.31007116969E-02
  1.32654983642E-02  1.34323577925E-02  1.36013160541E-02  1.37723995490E-02
  1.39456350093E-02  1.41210495034E-02  1.42986704403E-02  1.44785255736E-02
  1.46606430059E-02  1.48450511935E-02  1.50317789505E-02  1.52208554536E-02
  1.54123102464E-02  1.56061732439E-02  1.58024747378E-02  1.60012454005E-02
  1.62025162904E-02  1.64063188564E-02  1.66126849431E-02  1.68216467956E-02
  1.70332370646E-02  1.72474888116E-02  1.74644355138E-02  1.76841110696E-02
  1.79065498038E-02  1.81317864727E-02  1.83598562702E-02  1.85907948326E-02
  1.88246382445E-02  1.90614230444E-02  1.93011862305E-02  1.95439652662E-02
  1.97897980862E-02  2.00387231024E-02  2.02907792099E-02  2.05460057929E-02
  2.08044427311E-02  2.10661304059E-02  2.13311097063E-02  2.15994220361E-02
  2.18711093194E-02  2.21462140082E-02  2.24247790879E-02  2.27068480849E-02
  2.29924650732E-02  2.32816746809E-02  2.35745220977E-02  2.38710530815E-02
  2.41713139659E-02  2.44753516673E-02  2.47832136922E-02  2.50949481446E-02
  2.54106037338E-02  2.57302297815E-02  2.60538762299E-02  2.63815936495E-02
  2.67134332468E-02  2.70494468724E-02  2.73896870291E-02  2.77342068801E-02
  2.80830602573E-02  2.84363016699E-02  2.87939863124E-02  2.91561700739E-02
  2.95229095463E-02  2.98942620334E-02  3.02702855597E-02  3.06510388797E-02
  3.10365814870E-02  3.14269736232E-02  3.18222762880E-02  3.22225512482E-02
  3.26278610476E-02  3.30382690166E-02  3.34538392824E-02  3.38746367787E-02
  3.43007272559E-02  3.47321772915E-02  3.51690543004E-02  3.56114265457E-02
  3.60593631488E-02  3.65129341007E-02  3.69722102729E-02  3.74372634282E-02
  3.79081662320E-02  3.83849922640E-02  3.88678160291E-02  3.93567129695E-02
  3.98517594764E-02  4.03530329017E-02  4.08606115706E-02  4.13745747932E-02
  4.18950028772E-02  4.24219771407E-02  4.29555799244E-02  4.34958946049E-02
  4.40430056074E-02  4.45969984192E-02  4.51579596026E-02  4.57259768092E-02
  4.63011387926E-02  4.68835354232E-02  4.74732577016E-02  4.80703977730E-02
  4.86750489420E-02  4.92873056863E-02  4.99072636725E-02  5.05350197701E-02
  5.11706720674E-02  5.18143198863E-02  5.24660637981E-02  5.31260056391E-02
  5.37942485266E-02  5.44708968748E-02  5.51560564115E-02  5.58498341943E-02
  5.65523386272E-02  5.72636794782E-02  5.79839678955E-02  5.87133164258E-02
  5.94518390313E-02  6.01996511076E-02  6.09568695018E-02  6.17236125309E-02
  6.25000000000E-02  6.32861532213E-02  6.40821950328E-02  6.48882498176E-02
  6.57044435235E-02  6.65309036824E-02  6.73677594303E-02  6.82151415277E-02
  6.90731823797E-02  6.99420160570E-02  7.08217783167E-02  7.17126066233E-02
  7.26146401705E-02  7.35280199030E-02  7.44528885383E-02  7.53893905888E-02
  7.63376723850E-02  7.72978820978E-02  7.82701697620E-02  7.92546872994E-02
  8.02515885430E-02  8.12610292605E-02  8.22831671792E-02  8.33181620102E-02
  8.43661754735E-02  8.54273713234E-02  8.65019153738E-02  8.75899755245E-02
  8.86917217871E-02  8.98073263116E-02  9.09369634136E-02  9.20808096012E-02
  9.32390436026E-02  9.44118463942E-02  9.55994012290E-02  9.68018936646E-02
  9.80195115931E-02  9.92524452697E-02  1.00500887343E-01  1.01765032884E-01
  1.03045079419E-01  1.04341226957E-01  1.05653678024E-01  1.06982637693E-01
  1.08328313617E-01  1.09690916060E-01  1.11070657932E-01  1.12467754821E-01
  1.13882425024E-01  1.15314889589E-01  1.16765372340E-01  1.18234099917E-01
  1.19721301813E-01  1.21227210407E-01  1.22752060998E-01  1.24296091849E-01
  1.25859544217E-01  1.27442662395E-01  1.29045693748E-01  1.30668888753E-01
  1.32312501038E-01  1.33976787421E-01  1.35662007949E-01  1.37368425942E-01
  1.39096308031E-01  1.40845924201E-01  1.42617547833E-01  1.44411455747E-01
  1.46227928245E-01  1.48067249155E-01  1.49929705873E-01  1.51815589413E-01
  1.53725194447E-01  1.55658819356E-01  1.57616766272E-01  1.59599341129E-01
  1.61606853707E-01  1.63639617685E-01  1.65697950686E-01  1.67782174330E-01
  1.69892614279E-01  1.72029600295E-01  1.74193466285E-01  1.76384550360E-01
  1.78603194879E-01  1.80849746511E-01  1.83124556283E-01  1.85427979640E-01
  1.87760376497E-01  1.90122111294E-01  1.92513553057E-01  1.94935075455E-01
  1.97387056856E-01  1.99869880385E-01  2.02383933990E-01  2.04929610496E-01
  2.07507307671E-01  2.10117428285E-01  2.12760380174E-01  2.15436576306E-01
  2.18146434841E-01  2.20890379201E-01  2.23668838131E-01  2.26482245773E-01
  2.29331041726E-01  2.32215671121E-01  2.35136584687E-01  2.38094238823E-01
  2.41089095669E-01  2.44121623175E-01  2.47192295183E-01  2.50301591489E-01
  2.53449997928E-01  2.56638006445E-01  2.59866115172E-01  2.63134828509E-01
  2.66444657198E-01  2.69796118407E-01  2.73189735808E-01  2.76626039661E-01
  2.80105566896E-01  2.83628861196E-01  2.87196473082E-01  2.90808960001E-01
  2.94466886412E-01  2.98170823873E-01  3.01921351132E-01  3.05719054216E-01
  3.09564526525E-01  3.13458368920E-01  3.17401189824E-01  3.21393605309E-01
  3.25436239199E-01  3.29529723163E-01  3.33674696817E-01  3.37871807821E-01
  3.42121711983E-01  3.46425073358E-01  3.50782564356E-01  3.55194865843E-01
  3.59662667250E-01  3.64186666681E-01  3.68767571020E-01  3.73406096042E-01
  3.78102966526E-01  3.82858916368E-01  3.87674688694E-01  3.92551035979E-01
  3.97488720163E-01  4.02488512767E-01  4.07551195021E-01  4.12677557978E-01
  4.17868402642E-01  4.23124540095E-01  4.28446791619E-01  4.33835988825E-01
  4.39292973787E-01  4.44818599170E-01  4.50413728364E-01  4.56079235619E-01
  4.61816006183E-01  4.67624936438E-01  4.73506934040E-01  4.79462918064E-01
  4.85493819144E-01  4.91600579622E-01  4.97784153690E-01  5.04045507545E-01
  5.10385619535E-01  5.16805480318E-01  5.23306093008E-01  5.29888473340E-01
  5.36553649824E-01  5.43302663907E-01  5.50136570137E-01  5.57056436325E-01
  5.64063343715E-01  5.71158387149E-01  5.78342675244E-01  5.85617330559E-01
  5.92983489772E-01  6.00442303863E-01  6.07994938285E-01  6.15642573153E-01
  6.23386403426E-01  6.31227639093E-01  6.39167505362E-01  6.47207242854E-01
  6.55348107795E-01  6.63591372212E-01  6.71938324130E-01  6.80390267778E-01
  6.88948523790E-01  6.97614429411E-01  7.06389338705E-01  7.15274622771E-01
  7.24271669951E-01  7.33381886054E-01  7.42606694569E-01  7.51947536890E-01
  7.61405872544E-01  7.70983179415E-01  7.80680953975E-01  7.90500711524E-01
  8.00443986416E-01  8.10512332311E-01  8.20707322406E-01  8.31030549690E-01
  8.41483627188E-01  8.52068188214E-01  8.62785886629E-01  8.73638397094E-01
  8.84627415336E-01  8.95754658411E-01  9.07021864974E-01  9.18430795549E-01
  9.29983232805E-01  9.41680981832E-01  9.53525870429E-01  9.65519749383E-01
  9.77664492762E-01  9.89961998207E-01  1.00241418723E+00  1.01502300551E+00
  1.02779042319E+00  1.04071843523E+00  1.05380906163E+00  1.06706434785E+00
  1.08048636504E+00  1.09407721042E+00  1.10783900759E+00  1.12177390686E+00
  1.13588408559E+00  1.15017174852E+00  1.16463912812E+00  1.17928848495E+00
  1.19412210801E+00  1.20914231508E+00  1.22435145310E+00  1.23975189852E+00
  1.25534605770E+00  1.27113636725E+00  1.28712529445E+00  1.30331533759E+00
  1.31970902641E+00  1.33630892245E+00  1.35311761947E+00  1.37013774387E+00
  1.38737195509E+00  1.40482294600E+00  1.42249344335E+00  1.44038620819E+00
  1.45850403631E+00  1.47684975865E+00  1.49542624177E+00  1.51423638829E+00
  1.53328313732E+00  1.55256946496E+00  1.57209838474E+00  1.59187294809E+00
  1.61189624482E+00  1.63217140363E+00  1.65270159254E+00  1.67349001943E+00
  1.69453993254E+00  1.71585462097E+00  1.73743741517E+00  1.75929168750E+00
  1.78142085274E+00  1.80382836861E+00  1.82651773633E+00  1.84949250116E+00
  1.87275625296E+00  1.89631262674E+00  1.92016530322E+00  1.94431800944E+00
  1.96877451930E+00  1.99353865418E+00  2.01861428354E+00  2.04400532548E+00
  2.06971574742E+00  2.09574956665E+00  2.12211085102E+00  2.14880371952E+00
  2.17583234298E+00  2.20320094466E+00  2.23091380098E+00  2.25897524212E+00
  2.28738965273E+00  2.31616147263E+00  2.34529519748E+00  2.37479537946E+00
  2.40466662806E+00  2.43491361072E+00  2.46554105358E+00  2.49655374224E+00
  2.52795652250E+00  2.55975430112E+00  2.59195204655E+00  2.62455478977E+00
  2.65756762500E+00  2.69099571059E+00  2.72484426973E+00  2.75911859134E+00
  2.79382403083E+00  2.82896601102E+00  2.86455002290E+00  2.90058162654E+00
  2.93706645197E+00  2.97401020001E+00  3.01141864319E+00  3.04929762667E+00
  3.08765306910E+00  3.12649096360E+00  3.16581737868E+00  3.20563845916E+00
  3.24596042718E+00  3.28678958311E+00  3.32813230661E+00  3.36999505755E+00
  3.41238437707E+00  3.45530688860E+00  3.49876929885E+00  3.54277839893E+00
  3.58734106534E+00  3.63246426109E+00  3.67815503677E+00  3.72442053166E+00
  3.77126797484E+00  3.81870468630E+00  3.86673807815E+00  3.91537565568E+00
  3.96462501863E+00  4.01449386231E+00  4.06498997881E+00  4.11612125828E+00
  4.16789569006E+00  4.22032136402E+00  4.27340647178E+00  4.32715930800E+00
  4.38158827167E+00  4.43670186741E+00  4.49250870685E+00  4.54901750992E+00
  4.60623710622E+00  4.66417643645E+00  4.72284455373E+00  4.78225062509E+00
  4.84240393283E+00  4.90331387604E+00  4.96498997202E+00  5.02744185778E+00
  5.09067929156E+00  5.15471215434E+00  5.21955045138E+00  5.28520431379E+00
  5.35168400014E+00  5.41899989799E+00  5.48716252561E+00  5.55618253353E+00
  5.62607070628E+00  5.69683796403E+00  5.76849536429E+00  5.84105410369E+00
  5.91452551968E+00  5.98892109232E+00  6.06425244606E+00  6.14053135158E+00
  6.21776972762E+00  6.29597964283E+00  6.37517331767E+00  6.45536312631E+00
  6.53656159857E+00  6.61878142188E+00  6.70203544325E+00  6.78633667130E+00
  6.87169827826E+00  6.95813360205E+00  7.04565614838E+00  7.13427959281E+00
  7.22401778295E+00  7.31488474056E+00  7.40689466380E+00  7.50006192939E+00
  7.59440109492E+00  7.68992690107E+00  7.78665427395E+00  7.88459832740E+00
  7.98377436538E+00  8.08419788434E+00  8.18588457568E+00  8.28885032813E+00
  8.39311123031E+00  8.49868357319E+00  8.60558385268E+00  8.71382877215E+00
  8.82343524509E+00  8.93442039774E+00  9.04680157176E+00  9.16059632693E+00
  9.27582244391E+00  9.39249792702E+00  9.51064100704E+00  9.63027014407E+00
  9.75140403040E+00  9.87406159345E+00  9.99826199871E+00  1.01240246528E+01
  1.02513692062E+01  1.03803155570E+01  1.05108838532E+01  1.06430944964E+01
  1.07769681448E+01  1.09125257164E+01  1.10497883923E+01  1.11887776201E+01
  1.13295151172E+01  1.14720228741E+01  1.16163231579E+01  1.17624385158E+01
  1.19103917787E+01  1.20602060645E+01  1.22119047820E+01  1.23655116346E+01
  1.25210506234E+01  1.26785460519E+01  1.28380225290E+01  1.29995049733E+01
  1.31630186167E+01  1.33285890085E+01  1.34962420194E+01  1.36660038456E+01
  1.38379010128E+01  1.40119603801E+01  1.41882091447E+01  1.43666748459E+01
  1.45473853692E+01  1.47303689511E+01  1.49156541832E+01  1.51032700165E+01
  1.52932457665E+01  1.54856111173E+01  1.56803961263E+01  1.58776312291E+01
  1.60773472441E+01  1.62795753773E+01  1.64843472273E+01  1.66916947901E+01
  1.69016504641E+01  1.71142470555E+01  1.73295177827E+01  1.75474962823E+01
  1.77682166140E+01  1.79917132656E+01  1.82180211591E+01  1.84471756554E+01
  1.86792125604E+01  1.89141681304E+01  1.91520790777E+01  1.93929825763E+01
  1.96369162679E+01  1.98839182675E+01  2.01340271699E+01  2.03872820550E+01
  2.06437224944E+01  2.09033885574E+01  2.11663208174E+01  2.14325603581E+01
  2.17021487799E+01  2.19751282067E+01  2.22515412919E+01  2.25314312258E+01
  2.28148417416E+01  2.31018171228E+01  2.33924022100E+01  2.36866424076E+01
  2.39845836913E+01  2.42862726150E+01  2.45917563182E+01  2.49010825333E+01
  2.52142995933E+01  2.55314564389E+01  2.58526026264E+01  2.61777883358E+01
  2.65070643778E+01  2.68404822026E+01  2.71780939073E+01  2.75199522444E+01
  2.78661106302E+01  2.82166231523E+01  2.85715445793E+01  2.89309303682E+01
  2.92948366739E+01  2.96633203574E+01  3.00364389950E+01  3.04142508874E+01
  3.07968150683E+01  3.11841913143E+01  3.15764401536E+01  3.19736228758E+01
  3.23758015418E+01  3.27830389926E+01  3.31953988599E+01  3.36129455758E+01
  3.40357443829E+01  3.44638613442E+01  3.48973633541E+01  3.53363181479E+01
  3.57807943134E+01  3.62308613007E+01  3.66865894339E+01  3.71480499212E+01
  3.76153148670E+01  3.80884572822E+01  3.85675510964E+01  3.90526711689E+01
  3.95438933008E+01  4.00412942464E+01  4.05449517257E+01  4.10549444362E+01
  4.15713520653E+01  4.20942553027E+01  4.26237358532E+01  4.31598764491E+01
  4.37027608635E+01  4.42524739232E+01  4.48091015220E+01  4.53727306341E+01
  4.59434493276E+01  4.65213467786E+01  4.71065132847E+01  4.76990402793E+01
  4.82990203459E+01  4.89065472328E+01  4.95217158672E+01  5.01446223705E+01
  5.07753640730E+01  5.14140395294E+01  5.20607485342E+01  5.27155921368E+01
  5.33786726579E+01  5.40500937052E+01  5.47299601897E+01  5.54183783417E+01
  5.61154557282E+01  5.68213012687E+01  5.75360252532E+01  5.82597393587E+01
  5.89925566670E+01  5.97345916823E+01  6.04859603490E+01  6.12467800702E+01
  6.20171697253E+01  6.27972496894E+01  6.35871418515E+01  6.43869696339E+01
  6.51968580113E+01  6.60169335304E+01  6.68473243296E+01  6.76881601593E+01
  6.85395724018E+01  6.94016940919E+01  7.02746599378E+01  7.11586063424E+01
  7.20536714240E+01  7.29599950383E+01  7.38777188003E+01  7.48069861061E+01
  7.57479421558E+01  7.67007339755E+01  7.76655104409E+01  7.86424223004E+01
  7.96316221983E+01  8.06332646993E+01  8.16475063118E+01  8.26745055134E+01
  8.37144227747E+01  8.47674205848E+01  8.58336634768E+01  8.69133180534E+01
  8.80065530128E+01  8.91135391751E+01  9.02344495093E+01  9.13694591597E+01
  9.25187454740E+01  9.36824880306E+01  9.48608686665E+01  9.60540715061E+01
  9.72622829898E+01  9.84856919031E+01  9.97244894062E+01
  </PP_R>
  <PP_RAB>
  7.12407785589E-07  7.21368772398E-07  7.30442474544E-07  7.39630309813E-07
  7.48933713823E-07  7.58354140250E-07  7.67893061054E-07  7.77551966711E-07
  7.87332366444E-07  7.97235788462E-07  8.07263780193E-07  8.17417908533E-07
  8.27699760084E-07  8.38110941406E-07  8.48653079269E-07  8.59327820901E-07
  8.70136834254E-07  8.81081808257E-07  8.92164453086E-07  9.03386500425E-07
  9.14749703743E-07  9.26255838563E-07  9.37906702743E-07  9.49704116753E-07
  9.61649923964E-07  9.73745990931E-07  9.85994207691E-07  9.98396488052E-07
  1.01095476990E-06  1.02367101548E-06  1.03654721174E-06  1.04958537061E-06
  1.06278752933E-06  1.07615575077E-06  1.08969212373E-06  1.10339876330E-06
  1.11727781118E-06  1.13133143598E-06  1.14556183363E-06  1.15997122764E-06
  1.17456186951E-06  1.18933603907E-06  1.20429604480E-06  1.21944422424E-06
  1.23478294433E-06  1.25031460175E-06  1.26604162338E-06  1.28196646659E-06
  1.29809161967E-06  1.31441960220E-06  1.33095296547E-06  1.34769429285E-06
  1.36464620020E-06  1.38181133630E-06  1.39919238324E-06  1.41679205682E-06
  1.43461310705E-06  1.45265831850E-06  1.47093051076E-06  1.48943253891E-06
  1.50816729393E-06  1.52713770315E-06  1.54634673074E-06  1.56579737816E-06
  1.58549268461E-06  1.60543572751E-06  1.62562962301E-06  1.64607752644E-06
  1.66678263284E-06  1.68774817742E-06  1.70897743608E-06  1.73047372594E-06
  1.75224040585E-06  1.77428087688E-06  1.79659858291E-06  1.81919701112E-06
  1.84207969257E-06  1.86525020272E-06  1.88871216200E-06  1.91246923641E-06
  1.93652513802E-06  1.96088362563E-06  1.98554850529E-06  2.01052363094E-06
  2.03581290501E-06  2.06142027898E-06  2.08734975406E-06  2.11360538179E-06
  2.14019126466E-06  2.16711155677E-06  2.19437046447E-06  2.22197224702E-06
  2.24992121726E-06  2.27822174226E-06  2.30687824404E-06  2.33589520024E-06
  2.36527714482E-06  2.39502866877E-06  2.42515442082E-06  2.45565910818E-06
  2.48654749727E-06  2.51782441447E-06  2.54949474686E-06  2.58156344298E-06
  2.61403551365E-06  2.64691603268E-06  2.68021013773E-06  2.71392303107E-06
  2.74805998040E-06  2.78262631969E-06  2.81762745001E-06  2.85306884035E-06
  2.88895602850E-06  2.92529462191E-06  2.96209029855E-06  2.99934880783E-06
  3.03707597147E-06  3.07527768440E-06  3.11395991573E-06  3.15312870962E-06
  3.19279018630E-06  3.23295054294E-06  3.27361605468E-06  3.31479307558E-06
  3.35648803965E-06  3.39870746180E-06  3.44145793891E-06  3.48474615083E-06
  3.52857886142E-06  3.57296291963E-06  3.61790526057E-06  3.66341290657E-06
  3.70949296829E-06  3.75615264583E-06  3.80339922987E-06  3.85124010277E-06
  3.89968273977E-06  3.94873471014E-06  3.99840367834E-06  4.04869740525E-06
  4.09962374936E-06  4.15119066803E-06  4.20340621868E-06  4.25627856011E-06
  4.30981595372E-06  4.36402676484E-06  4.41891946403E-06  4.47450262837E-06
  4.53078494285E-06  4.58777520169E-06  4.64548230974E-06  4.70391528386E-06
  4.76308325431E-06  4.82299546621E-06  4.88366128096E-06  4.94509017772E-06
  5.00729175489E-06  5.07027573158E-06  5.13405194916E-06  5.19863037281E-06
  5.26402109304E-06  5.33023432726E-06  5.39728042145E-06  5.46516985168E-06
  5.53391322582E-06  5.60352128516E-06  5.67400490611E-06  5.74537510186E-06
  5.81764302416E-06  5.89081996502E-06  5.96491735848E-06  6.03994678242E-06
  6.11591996033E-06  6.19284876318E-06  6.27074521125E-06  6.34962147601E-06
  6.42948988205E-06  6.51036290896E-06  6.59225319332E-06  6.67517353066E-06
  6.75913687744E-06  6.84415635311E-06  6.93024524213E-06  7.01741699607E-06
  7.10568523570E-06  7.19506375310E-06  7.28556651385E-06  7.37720765919E-06
  7.47000150824E-06  7.56396256022E-06  7.65910549674E-06  7.75544518407E-06
  7.85299667549E-06  7.95177521363E-06  8.05179623281E-06  8.15307536154E-06
  8.25562842488E-06  8.35947144696E-06  8.46462065347E-06  8.57109247417E-06
  8.67890354550E-06  8.78807071317E-06  8.89861103478E-06  9.01054178246E-06
  9.12388044562E-06  9.23864473367E-06  9.35485257875E-06  9.47252213858E-06
  9.59167179927E-06  9.71232017819E-06  9.83448612690E-06  9.95818873408E-06
  1.00834473285E-05  1.02102814821E-05  1.03387110129E-05  1.04687559884E-05
  1.06004367283E-05  1.07337738080E-05  1.08687880617E-05  1.10055005856E-05
  1.11439327414E-05  1.12841061594E-05  1.14260427419E-05  1.15697646668E-05
  1.17152943910E-05  1.18626546538E-05  1.20118684805E-05  1.21629591861E-05
  1.23159503788E-05  1.24708659638E-05  1.26277301470E-05  1.27865674387E-05
  1.29474026576E-05  1.31102609345E-05  1.32751677164E-05  1.34421487702E-05
  1.36112301871E-05  1.37824383864E-05  1.39558001198E-05  1.41313424753E-05
  1.43090928818E-05  1.44890791132E-05  1.46713292927E-05  1.48558718973E-05
  1.50427357620E-05  1.52319500848E-05  1.54235444309E-05  1.56175487371E-05
  1.58139933170E-05  1.60129088656E-05  1.62143264638E-05  1.64182775835E-05
  1.66247940925E-05  1.68339082593E-05  1.70456527586E-05  1.72600606758E-05
  1.74771655126E-05  1.76970011921E-05  1.79196020640E-05  1.81450029102E-05
  1.83732389500E-05  1.86043458458E-05  1.88383597085E-05  1.90753171031E-05
  1.93152550550E-05  1.95582110547E-05  1.98042230646E-05  2.00533295247E-05
  2.03055693584E-05  2.05609819786E-05  2.08196072940E-05  2.10814857155E-05
  2.13466581619E-05  2.16151660672E-05  2.18870513861E-05  2.21623566013E-05
  2.24411247299E-05  2.27233993298E-05  2.30092245071E-05  2.32986449226E-05
  2.35917057987E-05  2.38884529268E-05  2.41889326744E-05  2.44931919918E-05
  2.48012784204E-05  2.51132400991E-05  2.54291257727E-05  2.57489847990E-05
  2.60728671565E-05  2.64008234526E-05  2.67329049310E-05  2.70691634802E-05
  2.74096516413E-05  2.77544226162E-05  2.81035302761E-05  2.84570291698E-05
  2.88149745322E-05  2.91774222930E-05  2.95444290854E-05  2.99160522550E-05
  3.02923498685E-05  3.06733807234E-05  3.10592043564E-05  3.14498810533E-05
  3.18454718581E-05  3.22460385827E-05  3.26516438163E-05  3.30623509358E-05
  3.34782241149E-05  3.38993283346E-05  3.43257293933E-05  3.47574939171E-05
  3.51946893700E-05  3.56373840647E-05  3.60856471732E-05  3.65395487375E-05
  3.69991596806E-05  3.74645518177E-05  3.79357978672E-05  3.84129714623E-05
  3.88961471624E-05  3.93854004646E-05  3.98808078157E-05  4.03824466243E-05
  4.08903952722E-05  4.14047331276E-05  4.19255405568E-05  4.24528989370E-05
  4.29868906691E-05  4.35275991902E-05  4.40751089873E-05  4.46295056099E-05