 Entering Gaussian System, Link 0=./g09
 Input=/home/keng/UFG/orientacoes/mestrado/vinicius/calculos/inputs/salicilato_lam/lamivudina_sem_salic_nmr.com
 Output=/home/keng/UFG/orientacoes/mestrado/vinicius/calculos/outputs/salicilato_lam/lamivudina_sem_salic_nmr.log
 Initial command:
 /home/gaussian//g09/l1.exe /home/gaussian/tmp/Gau-29026.inp -scrdir=/home/gaussian/tmp/
 Entering Link 1 = /home/gaussian//g09/l1.exe PID=     29027.
  
 Copyright (c) 1988,1990,1992,1993,1995,1998,2003,2009, Gaussian, Inc.
                  All Rights Reserved.
  
 This is part of the Gaussian(R) 09 program.  It is based on
 the Gaussian(R) 03 system (copyright 2003, Gaussian, Inc.),
 the Gaussian(R) 98 system (copyright 1998, Gaussian, Inc.),
 the Gaussian(R) 94 system (copyright 1995, Gaussian, Inc.),
 the Gaussian 92(TM) system (copyright 1992, Gaussian, Inc.),
 the Gaussian 90(TM) system (copyright 1990, Gaussian, Inc.),
 the Gaussian 88(TM) system (copyright 1988, Gaussian, Inc.),
 the Gaussian 86(TM) system (copyright 1986, Carnegie Mellon
 University), and the Gaussian 82(TM) system (copyright 1983,
 Carnegie Mellon University). Gaussian is a federally registered
 trademark of Gaussian, Inc.
  
 This software contains proprietary and confidential information,
 including trade secrets, belonging to Gaussian, Inc.
  
 This software is provided under written license and may be
 used, copied, transmitted, or stored only in accord with that
 written license.
  
 The following legend is applicable only to US Government
 contracts under FAR:
  
                    RESTRICTED RIGHTS LEGEND
  
 Use, reproduction and disclosure by the US Government is
 subject to restrictions as set forth in subparagraphs (a)
 and (c) of the Commercial Computer Software - Restricted
 Rights clause in FAR 52.227-19.
  
 Gaussian, Inc.
 340 Quinnipiac St., Bldg. 40, Wallingford CT 06492
  
  
 ---------------------------------------------------------------
 Warning -- This program may not be used in any manner that
 competes with the business of Gaussian, Inc. or will provide
 assistance to any competitor of Gaussian, Inc.  The licensee
 of this program is prohibited from giving any competitor of
 Gaussian, Inc. access to this program.  By using this program,
 the user acknowledges that Gaussian, Inc. is engaged in the
 business of creating and licensing software in the field of
 computational chemistry and represents and warrants to the
 licensee that it is not a competitor of Gaussian, Inc. and that
 it will not use this program in any manner prohibited above.
 ---------------------------------------------------------------
  

 Cite this work as:
 Gaussian 09, Revision A.01,
 M. J. Frisch, G. W. Trucks, H. B. Schlegel, G. E. Scuseria, 
 M. A. Robb, J. R. Cheeseman, G. Scalmani, V. Barone, B. Mennucci, 
 G. A. Petersson, H. Nakatsuji, M. Caricato, X. Li, H. P. Hratchian, 
 A. F. Izmaylov, J. Bloino, G. Zheng, J. L. Sonnenberg, M. Hada, 
 M. Ehara, K. Toyota, R. Fukuda, J. Hasegawa, M. Ishida, T. Nakajima, 
 Y. Honda, O. Kitao, H. Nakai, T. Vreven, J. A. Montgomery, Jr., 
 J. E. Peralta, F. Ogliaro, M. Bearpark, J. J. Heyd, E. Brothers, 
 K. N. Kudin, V. N. Staroverov, R. Kobayashi, J. Normand, 
 K. Raghavachari, A. Rendell, J. C. Burant, S. S. Iyengar, J. Tomasi, 
 M. Cossi, N. Rega, J. M. Millam, M. Klene, J. E. Knox, J. B. Cross, 
 V. Bakken, C. Adamo, J. Jaramillo, R. Gomperts, R. E. Stratmann, 
 O. Yazyev, A. J. Austin, R. Cammi, C. Pomelli, J. W. Ochterski, 
 R. L. Martin, K. Morokuma, V. G. Zakrzewski, G. A. Voth, 
 P. Salvador, J. J. Dannenberg, S. Dapprich, A. D. Daniels, 
 O. Farkas, J. B. Foresman, J. V. Ortiz, J. Cioslowski, 
 and D. J. Fox, Gaussian, Inc., Wallingford CT, 2009.
 
 ******************************************
 Gaussian 09:  EM64L-G09RevA.01  8-May-2009
                15-Feb-2013 
 ******************************************
 %chk=\home\keng\UFG\orientacoes\mestrado\vinicius\calculos\inputs\salicilato_lam
 \chk\lamivudina_sem_salic.chk
 %mem=3800MB
 %nprocshared=4
 Will use up to    4 processors via shared memory.
 -------------------------------
 #p nmr b3lyp/cc-pvtz maxdisk=-1
 -------------------------------
 1/38=1/1;
 2/12=2,17=6,18=5,40=1/2;
 3/5=16,6=1,11=2,16=1,25=1,30=1,74=-5/1,2,8,3;
 4//1;
 5/5=2,38=5/2;
 8/6=1,10=90,11=11/1;
 10/13=100,45=16/2;
 6/7=2,8=2,9=2,10=2,28=1/1;
 99/9=1/99;
 Leave Link    1 at Fri Feb 15 21:03:44 2013, MaxMem=  498073600 cpu:       0.1
 (Enter /home/gaussian//g09/l101.exe)
 ------------------------
 Salicilato de Lamivudina
 ------------------------
 Symbolic Z-matrix:
 Charge =  0 Multiplicity = 2
 S                     7.1333    1.3356    4.1555 
 N                     11.7294  -0.9086    3.0235 
 O                     7.4493    2.6309    1.3321 
 O                     11.4251  -0.1637    5.1538 
 N                     10.2992   0.8879    3.4675 
 N                     12.0015  -1.761     0.9121 
 O                     9.1857    2.936     3.7673 
 C                     11.4418  -0.8879    1.699 
 C                     9.9997    0.9478    2.1405 
 H                     9.4142    1.6058    1.8419 
 C                     10.5257   0.0832    1.241 
 H                     10.288    0.1277    0.3428 
 C                     11.182   -0.0604    3.9748 
 C                     9.6979    1.832     4.4643 
 H                     10.3925   2.1345    5.0855 
 C                     8.5755    1.1602    5.2525 
 H                     8.4258    1.6084    6.1001 
 H                     8.7753    0.2257    5.4195 
 C                     7.2591    3.5331    2.4124 
 H                     6.316     3.7519    2.4744 
 H                     7.7402    4.3537    2.2227 
 C                     7.7204    2.9996    3.7433 
 H                     7.4245    3.6168    4.4454 
 H                     12.3115  -1.5046    3.2765 
 H                     6.8145    2.1403    1.2524 
 H                     12.5679  -2.4158    1.2018 
 H                     11.8738  -1.6741    0.038 
 
 NAtoms=     27 NQM=     27 NQMF=      0 NMic=      0 NMicF=      0 NTot=     27.
                    Isotopes and Nuclear Properties:
 (Nuclear quadrupole moments (NQMom) in fm**2, nuclear magnetic moments (NMagM)
  in nuclear magnetons)

  Atom         1           2           3           4           5           6           7           8           9          10
 IAtWgt=          32          14          16          16          14          14          16          12          12           1
 AtmWgt=  31.9720718  14.0030740  15.9949146  15.9949146  14.0030740  14.0030740  15.9949146  12.0000000  12.0000000   1.0078250
 NucSpn=           0           2           0           0           2           2           0           0           0           1
 AtZEff=   0.0000000   0.0000000   0.0000000   0.0000000   0.0000000   0.0000000   0.0000000   0.0000000   0.0000000   0.0000000
 NQMom=    0.0000000   2.0440000   0.0000000   0.0000000   2.0440000   2.0440000   0.0000000   0.0000000   0.0000000   0.0000000
 NMagM=    0.0000000   0.4037610   0.0000000   0.0000000   0.4037610   0.4037610   0.0000000   0.0000000   0.0000000   2.7928460

  Atom        11          12          13          14          15          16          17          18          19          20
 IAtWgt=          12           1          12          12           1          12           1           1          12           1
 AtmWgt=  12.0000000   1.0078250  12.0000000  12.0000000   1.0078250  12.0000000   1.0078250   1.0078250  12.0000000   1.0078250
 NucSpn=           0           1           0           0           1           0           1           1           0           1
 AtZEff=   0.0000000   0.0000000   0.0000000   0.0000000   0.0000000   0.0000000   0.0000000   0.0000000   0.0000000   0.0000000
 NQMom=    0.0000000   0.0000000   0.0000000   0.0000000   0.0000000   0.0000000   0.0000000   0.0000000   0.0000000   0.0000000
 NMagM=    0.0000000   2.7928460   0.0000000   0.0000000   2.7928460   0.0000000   2.7928460   2.7928460   0.0000000   2.7928460

  Atom        21          22          23          24          25          26          27
 IAtWgt=           1          12           1           1           1           1           1
 AtmWgt=   1.0078250  12.0000000   1.0078250   1.0078250   1.0078250   1.0078250   1.0078250
 NucSpn=           1           0           1           1           1           1           1
 AtZEff=   0.0000000   0.0000000   0.0000000   0.0000000   0.0000000   0.0000000   0.0000000
 NQMom=    0.0000000   0.0000000   0.0000000   0.0000000   0.0000000   0.0000000   0.0000000
 NMagM=    2.7928460   0.0000000   2.7928460   2.7928460   2.7928460   2.7928460   2.7928460
 Leave Link  101 at Fri Feb 15 21:03:44 2013, MaxMem=  498073600 cpu:       0.1
 (Enter /home/gaussian//g09/l202.exe)
                          Input orientation:                          
 ---------------------------------------------------------------------
 Center     Atomic      Atomic             Coordinates (Angstroms)
 Number     Number       Type             X           Y           Z
 ---------------------------------------------------------------------
      1         16           0        7.133300    1.335600    4.155500
      2          7           0       11.729400   -0.908600    3.023500
      3          8           0        7.449300    2.630900    1.332100
      4          8           0       11.425100   -0.163700    5.153800
      5          7           0       10.299200    0.887900    3.467500
      6          7           0       12.001500   -1.761000    0.912100
      7          8           0        9.185700    2.936000    3.767300
      8          6           0       11.441800   -0.887900    1.699000
      9          6           0        9.999700    0.947800    2.140500
     10          1           0        9.414200    1.605800    1.841900
     11          6           0       10.525700    0.083200    1.241000
     12          1           0       10.288000    0.127700    0.342800
     13          6           0       11.182000   -0.060400    3.974800
     14          6           0        9.697900    1.832000    4.464300
     15          1           0       10.392500    2.134500    5.085500
     16          6           0        8.575500    1.160200    5.252500
     17          1           0        8.425800    1.608400    6.100100
     18          1           0        8.775300    0.225700    5.419500
     19          6           0        7.259100    3.533100    2.412400
     20          1           0        6.316000    3.751900    2.474400
     21          1           0        7.740200    4.353700    2.222700
     22          6           0        7.720400    2.999600    3.743300
     23          1           0        7.424500    3.616800    4.445400
     24          1           0       12.311500   -1.504600    3.276500
     25          1           0        6.814500    2.140300    1.252400
     26          1           0       12.567900   -2.415800    1.201800
     27          1           0       11.873800   -1.674100    0.038000
 ---------------------------------------------------------------------
                    Distance matrix (angstroms):
                    1          2          3          4          5
     1  S    0.000000
     2  N    5.238511   0.000000
     3  O    3.122378   5.805872   0.000000
     4  O    4.654466   2.277203   6.182408   0.000000
     5  N    3.270581   2.338807   3.964834   2.284102   0.000000
     6  N    6.618757   2.293171   6.339378   4.568985   4.055190
     7  O    2.631411   4.669539   3.006388   4.067608   2.350420
     8  C    5.435211   1.355523   5.334475   3.529927   2.754377
     9  C    3.525176   2.686591   3.160835   3.513855   1.361696
    10  H    3.260101   3.616426   2.274106   4.259522   1.985241
    11  C    4.644480   2.368516   3.995411   4.022423   2.378265
    12  H    5.093902   3.215230   3.911898   4.952134   3.215864
    13  C    4.286425   1.387106   5.306600   1.208226   1.391389
    14  C    2.630388   3.703213   3.937654   2.727902   1.498832
    15  H    3.482173   3.911471   4.795503   2.520447   2.044661
    16  C    1.820471   4.381262   4.335991   3.143672   2.496300
    17  H    2.350839   5.168610   4.973217   3.609934   3.310488
    18  H    2.350689   3.969151   4.924439   2.691406   2.563413
    19  C    2.807709   6.331329   1.420278   6.207831   4.165636
    20  H    3.054928   7.164263   1.961086   6.972375   5.005460
    21  H    3.634965   6.651827   1.961079   6.525085   4.484393
    22  C    1.812041   5.644840   2.454245   5.071566   3.344481
    23  H    2.317911   6.405717   3.265770   5.549668   4.082534
    24  H    5.971024   0.870670   6.672634   2.471431   3.132074
    25  H    3.029384   6.048870   0.806233   6.464284   4.314894
    26  H    7.234101   2.508650   7.189313   4.690016   4.603784
    27  H    6.963077   3.085458   6.307450   5.352948   4.561215
                    6          7          8          9         10
     6  N    0.000000
     7  O    6.175978   0.000000
     8  C    1.301837   4.897965   0.000000
     9  C    3.585215   2.694812   2.375788   0.000000
    10  H    4.346722   2.351342   3.217161   0.930019   0.000000
    11  C    2.384792   4.039339   1.411396   1.353998   1.978591
    12  H    2.612924   4.563860   2.049872   1.996849   2.279387
    13  C    3.597743   3.606478   2.435471   2.403946   3.232739
    14  C    5.552868   1.402488   4.252755   2.504584   2.647382
    15  H    5.931363   1.958678   4.658789   3.199308   3.428926
    16  C    6.253795   2.394082   5.003774   3.428995   3.540363
    17  H    7.145196   2.789610   5.890454   4.311842   4.371408
    18  H    5.888293   3.200612   4.710886   3.573853   3.887427
    19  C    7.264210   2.429829   6.127737   3.777379   2.946933
    20  H    8.072036   3.251532   6.957213   4.641563   3.821602
    21  H    7.567424   2.546592   6.438204   4.088062   3.240099
    22  C    7.000487   1.466876   5.756790   3.460355   2.902922
    23  H    7.896447   2.006274   6.631269   4.366667   3.844638
    24  H    2.398380   5.452563   1.903997   3.556569   4.486314
    25  H    6.499301   3.546893   5.548094   3.515150   2.718757
    26  H    0.912961   6.831020   1.962088   4.334814   5.150613
    27  H    0.887643   6.510498   1.887765   3.848002   4.478999
                   11         12         13         14         15
    11  C    0.000000
    12  H    0.930185   0.000000
    13  C    2.815140   3.745136   0.000000
    14  C    3.759417   4.498846   2.454250   0.000000
    15  H    4.359559   5.150861   2.583515   0.979727   0.000000
    16  C    4.588610   5.301308   3.149004   1.527205   2.068487
    17  H    5.508781   6.229508   3.859849   2.084245   2.274666
    18  H    4.532557   5.298183   2.821563   2.084178   2.523967
    19  C    4.893328   5.005420   5.544680   3.612725   4.349683
    20  H    5.718585   5.784058   6.361037   4.368405   5.104084
    21  H    5.192294   5.280567   5.865162   3.900812   4.489451
    22  C    4.757794   5.138461   4.625999   2.406998   3.112879
    23  H    5.689635   6.099572   5.278453   2.890366   3.378752
    24  H    3.139021   3.919892   1.961914   4.401667   4.494229
    25  H    4.243206   4.116204   5.597285   4.327279   5.243546
    26  H    3.227556   3.522104   3.893348   6.076562   6.365589
    27  H    2.520454   2.419535   4.310569   6.051397   6.494378
                   16         17         18         19         20
    16  C    0.000000
    17  H    0.970422   0.000000
    18  H    0.970103   1.580261   0.000000
    19  C    3.928070   4.320277   4.720213   0.000000
    20  H    4.420417   4.710791   5.211128   0.970131   0.000000
    21  H    4.480609   4.800099   5.322720   0.969963   1.566481
    22  C    2.528294   2.826222   3.408369   1.506225   2.036763
    23  H    2.830388   2.788244   3.777974   2.041434   2.265362
    24  H    4.996342   5.723823   4.482309   7.186921   8.013749
    25  H    4.479120   5.136088   4.987500   1.866323   2.083036
    26  H    6.718274   7.572617   6.257022   8.064634   8.873911
    27  H    6.789923   7.707955   6.493881   7.351746   8.140434
                   21         22         23         24         25
    21  H    0.000000
    22  C    2.036223   0.000000
    23  H    2.362855   0.980529   0.000000
    24  H    7.505129   6.448559   7.174806   0.000000
    25  H    2.587961   2.786330   3.570350   6.899224   0.000000
    26  H    8.377055   7.699613   8.565499   2.280440   7.339088
    27  H    7.628495   7.267974   8.198480   3.272338   6.451429
                   26         27
    26  H    0.000000
    27  H    1.544773   0.000000
 Stoichiometry    C8H12N3O3S(2)
 Framework group  C1[X(C8H12N3O3S)]
 Deg. of freedom    75
 Full point group                 C1      NOp   1
 Largest Abelian subgroup         C1      NOp   1
 Largest concise Abelian subgroup C1      NOp   1
                         Standard orientation:                         
 ---------------------------------------------------------------------
 Center     Atomic      Atomic             Coordinates (Angstroms)
 Number     Number       Type             X           Y           Z
 ---------------------------------------------------------------------
      1         16           0        2.150531   -0.513396    1.306411
      2          7           0       -2.928492   -0.464479    0.024568
      3          8           0        2.158648    2.333585    0.024274
      4          8           0       -1.790680   -2.413140   -0.281630
      5          7           0       -0.630995   -0.449714   -0.412821
      6          7           0       -4.106806    1.459675    0.434252
      7          8           0        1.561192   -0.322536   -1.251044
      8          6           0       -2.973567    0.884249    0.152411
      9          6           0       -0.642808    0.907839   -0.307344
     10          1           0        0.149778    1.375308   -0.442314
     11          6           0       -1.768712    1.600298   -0.013826
     12          1           0       -1.748168    2.525802    0.077081
     13          6           0       -1.786447   -1.205605   -0.241002
     14          6           0        0.621474   -1.215348   -0.715516
     15          1           0        0.424666   -1.912960   -1.374659
     16          6           0        1.191451   -1.860866    0.545749
     17          1           0        1.761982   -2.614575    0.326349
     18          1           0        0.482999   -2.161474    1.136366
     19          6           0        3.095772    1.408929   -0.508641
     20          1           0        3.949305    1.539100   -0.066270
     21          1           0        3.220542    1.598781   -1.451624
     22          6           0        2.686908   -0.032719   -0.356340
     23          1           0        3.443754   -0.599800   -0.615260
     24          1           0       -3.688503   -0.879982    0.112918
     25          1           0        2.302667    2.470436    0.805646
     26          1           0       -4.884976    1.004643    0.578802
     27          1           0       -4.136195    2.346755    0.422646
 ---------------------------------------------------------------------
 Rotational constants (GHZ):      0.9564945      0.3889095      0.3141235
 Leave Link  202 at Fri Feb 15 21:03:44 2013, MaxMem=  498073600 cpu:       0.0
 (Enter /home/gaussian//g09/l301.exe)
 Standard basis: CC-pVTZ (5D, 7F)
 Ernie: Thresh=  0.10000D-02 Tol=  0.10000D-05 Strict=F.
 Ernie:  55 primitive shells out of 520 were deleted.
 There are   622 symmetry adapted basis functions of A   symmetry.
 Integral buffers will be    131072 words long.
 Raffenetti 2 integral format.
 Two-electron integral symmetry is turned on.
   622 basis functions,  1026 primitive gaussians,   709 cartesian basis functions
    61 alpha electrons       60 beta electrons
       nuclear repulsion energy      1209.0687538812 Hartrees.
 IExCor=  402 DFT=T Ex+Corr=B3LYP ExCW=0 ScaHFX=  0.200000
 ScaDFX=  0.800000  0.720000  1.000000  0.810000 ScalE2=  1.000000  1.000000
 IRadAn=      0 IRanWt=     -1 IRanGd=            0 ICorTp=0
 NAtoms=   27 NActive=   27 NUniq=   27 SFac= 7.50D-01 NAtFMM=   80 NAOKFM=F Big=F
 Leave Link  301 at Fri Feb 15 21:03:44 2013, MaxMem=  498073600 cpu:       0.1
 (Enter /home/gaussian//g09/l302.exe)
 NPDir=0 NMtPBC=     1 NCelOv=     1 NCel=       1 NClECP=     1 NCelD=      1
         NCelK=      1 NCelE2=     1 NClLst=     1 CellRange=     0.0.
 One-electron integrals computed using PRISM.
 NBasis=   622 RedAO= T  NBF=   622
 NBsUse=   622 1.00D-06 NBFU=   622
 Precomputing XC quadrature grid using
 IXCGrd= 2 IRadAn=           0 IRanWt=          -1 IRanGd=           0 AccXCQ= 1.00D-10.
 NRdTot=    1719 NPtTot=      218608 NUsed=      231005 NTot=      231037
 NSgBfM=   708   708   708   708   708 NAtAll=    27    27.
 Leave Link  302 at Fri Feb 15 21:03:45 2013, MaxMem=  498073600 cpu:       3.5
 (Enter /home/gaussian//g09/l308.exe)
 Leave Link  308 at Fri Feb 15 21:03:45 2013, MaxMem=  498073600 cpu:       0.8
 (Enter /home/gaussian//g09/l303.exe)
 DipDrv:  MaxL=1.
 Leave Link  303 at Fri Feb 15 21:03:46 2013, MaxMem=  498073600 cpu:       0.6
 (Enter /home/gaussian//g09/l401.exe)
 Harris functional with IExCor=  402 diagonalized for initial guess.
 ExpMin= 1.03D-01 ExpMax= 3.74D+05 ExpMxC= 1.18D+03 IAcc=2 IRadAn=         0 AccDes= 0.00D+00
 HarFok:  IExCor=  402 AccDes= 0.00D+00 IRadAn=         0 IDoV= 1
 ScaDFX=  1.000000  1.000000  1.000000  1.000000
 FoFCou: FMM=F IPFlag=           0 FMFlag=      100000 FMFlg1=           0
         NFxFlg=           0 DoJE=T BraDBF=F KetDBF=T FulRan=T
         Omega=  0.000000  0.000000  1.000000  0.000000  0.000000 ICntrl=     500 IOpCl=  0
         NMat0=    1 NMatS0=    1 NMatT0=    0 NMatD0=    1 NMtDS0=    0 NMtDT0=    0
         I1Cent=           4 NGrid=           0.
 Petite list used in FoFCou.
 Harris En= -1100.45748151186    
 Initial guess orbital symmetries:
 Alpha Orbitals:
       Occupied  (A) (A) (A) (A) (A) (A) (A) (A) (A) (A) (A) (A)
                 (A) (A) (A) (A) (A) (A) (A) (A) (A) (A) (A) (A)
                 (A) (A) (A) (A) (A) (A) (A) (A) (A) (A) (A) (A)
                 (A) (A) (A) (A) (A) (A) (A) (A) (A) (A) (A) (A)
                 (A) (A) (A) (A) (A) (A) (A) (A) (A) (A) (A) (A)
                 (A)
       Virtual   (A) (A) (A) (A) (A) (A) (A) (A) (A) (A) (A) (A)
                 (A) (A) (A) (A) (A) (A) (A) (A) (A) (A) (A) (A)
                 (A) (A) (A) (A) (A) (A) (A) (A) (A) (A) (A) (A)
                 (A) (A) (A) (A) (A) (A) (A) (A) (A) (A) (A) (A)
                 (A) (A) (A) (A) (A) (A) (A) (A) (A) (A) (A) (A)
                 (A) (A) (A) (A) (A) (A) (A) (A) (A) (A) (A) (A)
                 (A) (A) (A) (A) (A) (A) (A) (A) (A) (A) (A) (A)
                 (A) (A) (A) (A) (A) (A) (A) (A) (A) (A) (A) (A)
                 (A) (A) (A) (A) (A) (A) (A) (A) (A) (A) (A) (A)
                 (A) (A) (A) (A) (A) (A) (A) (A) (A) (A) (A) (A)
                 (A) (A) (A) (A) (A) (A) (A) (A) (A) (A) (A) (A)
                 (A) (A) (A) (A) (A) (A) (A) (A) (A) (A) (A) (A)
                 (A) (A) (A) (A) (A) (A) (A) (A) (A) (A) (A) (A)
                 (A) (A) (A) (A) (A) (A) (A) (A) (A) (A) (A) (A)
                 (A) (A) (A) (A) (A) (A) (A) (A) (A) (A) (A) (A)
                 (A) (A) (A) (A) (A) (A) (A) (A) (A) (A) (A) (A)
                 (A) (A) (A) (A) (A) (A) (A) (A) (A) (A) (A) (A)
                 (A) (A) (A) (A) (A) (A) (A) (A) (A) (A) (A) (A)
                 (A) (A) (A) (A) (A) (A) (A) (A) (A) (A) (A) (A)
                 (A) (A) (A) (A) (A) (A) (A) (A) (A) (A) (A) (A)
                 (A) (A) (A) (A) (A) (A) (A) (A) (A) (A) (A) (A)
                 (A) (A) (A) (A) (A) (A) (A) (A) (A) (A) (A) (A)
                 (A) (A) (A) (A) (A) (A) (A) (A) (A) (A) (A) (A)
                 (A) (A) (A) (A) (A) (A) (A) (A) (A) (A) (A) (A)
                 (A) (A) (A) (A) (A) (A) (A) (A) (A) (A) (A) (A)
                 (A) (A) (A) (A) (A) (A) (A) (A) (A) (A) (A) (A)
                 (A) (A) (A) (A) (A) (A) (A) (A) (A) (A) (A) (A)
                 (A) (A) (A) (A) (A) (A) (A) (A) (A) (A) (A) (A)
                 (A) (A) (A) (A) (A) (A) (A) (A) (A) (A) (A) (A)
                 (A) (A) (A) (A) (A) (A) (A) (A) (A) (A) (A) (A)
                 (A) (A) (A) (A) (A) (A) (A) (A) (A) (A) (A) (A)
                 (A) (A) (A) (A) (A) (A) (A) (A) (A) (A) (A) (A)
                 (A) (A) (A) (A) (A) (A) (A) (A) (A) (A) (A) (A)
                 (A) (A) (A) (A) (A) (A) (A) (A) (A) (A) (A) (A)
                 (A) (A) (A) (A) (A) (A) (A) (A) (A) (A) (A) (A)
                 (A) (A) (A) (A) (A) (A) (A) (A) (A) (A) (A) (A)
                 (A) (A) (A) (A) (A) (A) (A) (A) (A) (A) (A) (A)
                 (A) (A) (A) (A) (A) (A) (A) (A) (A) (A) (A) (A)
                 (A) (A) (A) (A) (A) (A) (A) (A) (A) (A) (A) (A)
                 (A) (A) (A) (A) (A) (A) (A) (A) (A) (A) (A) (A)
                 (A) (A) (A) (A) (A) (A) (A) (A) (A) (A) (A) (A)
                 (A) (A) (A) (A) (A) (A) (A) (A) (A) (A) (A) (A)
                 (A) (A) (A) (A) (A) (A) (A) (A) (A) (A) (A) (A)
                 (A) (A) (A) (A) (A) (A) (A) (A) (A) (A) (A) (A)
                 (A) (A) (A) (A) (A) (A) (A) (A) (A) (A) (A) (A)
                 (A) (A) (A) (A) (A) (A) (A) (A) (A) (A) (A) (A)
                 (A) (A) (A) (A) (A) (A) (A) (A) (A)
 Beta  Orbitals:
       Occupied  (A) (A) (A) (A) (A) (A) (A) (A) (A) (A) (A) (A)
                 (A) (A) (A) (A) (A) (A) (A) (A) (A) (A) (A) (A)
                 (A) (A) (A) (A) (A) (A) (A) (A) (A) (A) (A) (A)
                 (A) (A) (A) (A) (A) (A) (A) (A) (A) (A) (A) (A)
                 (A) (A) (A) (A) (A) (A) (A) (A) (A) (A) (A) (A)
       Virtual   (A) (A) (A) (A) (A) (A) (A) (A) (A) (A) (A) (A)
                 (A) (A) (A) (A) (A) (A) (A) (A) (A) (A) (A) (A)
                 (A) (A) (A) (A) (A) (A) (A) (A) (A) (A) (A) (A)
                 (A) (A) (A) (A) (A) (A) (A) (A) (A) (A) (A) (A)
                 (A) (A) (A) (A) (A) (A) (A) (A) (A) (A) (A) (A)
                 (A) (A) (A) (A) (A) (A) (A) (A) (A) (A) (A) (A)
                 (A) (A) (A) (A) (A) (A) (A) (A) (A) (A) (A) (A)
                 (A) (A) (A) (A) (A) (A) (A) (A) (A) (A) (A) (A)
                 (A) (A) (A) (A) (A) (A) (A) (A) (A) (A) (A) (A)
                 (A) (A) (A) (A) (A) (A) (A) (A) (A) (A) (A) (A)
                 (A) (A) (A) (A) (A) (A) (A) (A) (A) (A) (A) (A)
                 (A) (A) (A) (A) (A) (A) (A) (A) (A) (A) (A) (A)
                 (A) (A) (A) (A) (A) (A) (A) (A) (A) (A) (A) (A)
                 (A) (A) (A) (A) (A) (A) (A) (A) (A) (A) (A) (A)
                 (A) (A) (A) (A) (A) (A) (A) (A) (A) (A) (A) (A)
                 (A) (A) (A) (A) (A) (A) (A) (A) (A) (A) (A) (A)
                 (A) (A) (A) (A) (A) (A) (A) (A) (A) (A) (A) (A)
                 (A) (A) (A) (A) (A) (A) (A) (A) (A) (A) (A) (A)
                 (A) (A) (A) (A) (A) (A) (A) (A) (A) (A) (A) (A)
                 (A) (A) (A) (A) (A) (A) (A) (A) (A) (A) (A) (A)
                 (A) (A) (A) (A) (A) (A) (A) (A) (A) (A) (A) (A)
                 (A) (A) (A) (A) (A) (A) (A) (A) (A) (A) (A) (A)
                 (A) (A) (A) (A) (A) (A) (A) (A) (A) (A) (A) (A)
                 (A) (A) (A) (A) (A) (A) (A) (A) (A) (A) (A) (A)
                 (A) (A) (A) (A) (A) (A) (A) (A) (A) (A) (A) (A)
                 (A) (A) (A) (A) (A) (A) (A) (A) (A) (A) (A) (A)
                 (A) (A) (A) (A) (A) (A) (A) (A) (A) (A) (A) (A)
                 (A) (A) (A) (A) (A) (A) (A) (A) (A) (A) (A) (A)
                 (A) (A) (A) (A) (A) (A) (A) (A) (A) (A) (A) (A)
                 (A) (A) (A) (A) (A) (A) (A) (A) (A) (A) (A) (A)
                 (A) (A) (A) (A) (A) (A) (A) (A) (A) (A) (A) (A)
                 (A) (A) (A) (A) (A) (A) (A) (A) (A) (A) (A) (A)
                 (A) (A) (A) (A) (A) (A) (A) (A) (A) (A) (A) (A)
                 (A) (A) (A) (A) (A) (A) (A) (A) (A) (A) (A) (A)
                 (A) (A) (A) (A) (A) (A) (A) (A) (A) (A) (A) (A)
                 (A) (A) (A) (A) (A) (A) (A) (A) (A) (A) (A) (A)
                 (A) (A) (A) (A) (A) (A) (A) (A) (A) (A) (A) (A)
                 (A) (A) (A) (A) (A) (A) (A) (A) (A) (A) (A) (A)
                 (A) (A) (A) (A) (A) (A) (A) (A) (A) (A) (A) (A)
                 (A) (A) (A) (A) (A) (A) (A) (A) (A) (A) (A) (A)
                 (A) (A) (A) (A) (A) (A) (A) (A) (A) (A) (A) (A)
                 (A) (A) (A) (A) (A) (A) (A) (A) (A) (A) (A) (A)
                 (A) (A) (A) (A) (A) (A) (A) (A) (A) (A) (A) (A)
                 (A) (A) (A) (A) (A) (A) (A) (A) (A) (A) (A) (A)
                 (A) (A) (A) (A) (A) (A) (A) (A) (A) (A) (A) (A)
                 (A) (A) (A) (A) (A) (A) (A) (A) (A) (A) (A) (A)
                 (A) (A) (A) (A) (A) (A) (A) (A) (A) (A)
 The electronic state of the initial guess is 2-A.
 Initial guess <Sx>= 0.0000 <Sy>= 0.0000 <Sz>= 0.5000 <S**2>= 0.7500 S= 0.5000
 Leave Link  401 at Fri Feb 15 21:03:52 2013, MaxMem=  498073600 cpu:      23.3
 (Enter /home/gaussian//g09/l502.exe)
 UHF open shell SCF:
 Requested convergence on RMS density matrix=1.00D-08 within 128 cycles.
 Requested convergence on MAX density matrix=1.00D-06.
 Requested convergence on             energy=1.00D-06.
 No special actions if energy rises.
 Using DIIS extrapolation, IDIIS=  1040.
 Integral symmetry usage will be decided dynamically.
       230749 words used for storage of precomputed grid.
 IEnd=     1766346 IEndB=     1766346 NGot=   498073600 MDV=   496827285
 LenX=   496827285 LenY=   496323895
 Fock matrices will be formed incrementally for  20 cycles.
 Integral accuracy reduced to 1.0D-05 until final iterations.

 Cycle   1  Pass 0  IDiag  1:
 FoFCou: FMM=F IPFlag=           0 FMFlag=      100000 FMFlg1=           0
         NFxFlg=           0 DoJE=F BraDBF=F KetDBF=F FulRan=T
         Omega=  0.000000  0.000000  1.000000  0.000000  0.000000 ICntrl=       0 IOpCl=  1
         NMat0=    1 NMatS0=    1 NMatT0=    0 NMatD0=    1 NMtDS0=    0 NMtDT0=    0
         I1Cent=           0 NGrid=           0.
 Symmetry not used in FoFCou.
 E= -1099.69671590647    
 DIIS: error= 1.94D-02 at cycle   1 NSaved=   1.
 NSaved= 1 IEnMin= 1 EnMin= -1099.69671590647     IErMin= 1 ErrMin= 1.94D-02
 ErrMax= 1.94D-02 EMaxC= 1.00D-01 BMatC= 2.80D+00 BMatP= 2.80D+00
 IDIUse=3 WtCom= 8.06D-01 WtEn= 1.94D-01
 Coeff-Com:  0.100D+01
 Coeff-En:   0.100D+01
 Coeff:      0.100D+01
 Gap=     0.051 Goal=   None    Shift=    0.000
 Gap=     0.422 Goal=   None    Shift=    0.000
 GapD=    0.051 DampG=0.500 DampE=0.500 DampFc=0.2500 IDamp=-1.
 Damping current iteration by 2.50D-01
 RMSDP=7.56D-03 MaxDP=1.66D+00              OVMax= 9.65D-01

 Cycle   2  Pass 0  IDiag  1:
 RMSU=  1.82D-03    CP:  9.99D-01
 E= -1099.88324015205     Delta-E=       -0.186524245584 Rises=F Damp=T
 DIIS: error= 8.88D-03 at cycle   2 NSaved=   2.
 NSaved= 2 IEnMin= 2 EnMin= -1099.88324015205     IErMin= 2 ErrMin= 8.88D-03
 ErrMax= 8.88D-03 EMaxC= 1.00D-01 BMatC= 6.04D-01 BMatP= 2.80D+00
 IDIUse=3 WtCom= 9.11D-01 WtEn= 8.88D-02
 Coeff-Com: -0.681D+00 0.168D+01
 Coeff-En:   0.000D+00 0.100D+01
 Coeff:     -0.621D+00 0.162D+01
 Gap=    -0.127 Goal=   None    Shift=    0.000
 Gap=     0.323 Goal=   None    Shift=    0.000
 RMSDP=1.90D-03 MaxDP=3.76D-01 DE=-1.87D-01 OVMax= 9.68D-01

 Cycle   3  Pass 0  IDiag  1:
 RMSU=  8.69D-04    CP:  1.00D+00  1.88D-01
 E= -1100.19201799525     Delta-E=       -0.308777843199 Rises=F Damp=F
 DIIS: error= 4.62D-03 at cycle   3 NSaved=   3.
 NSaved= 3 IEnMin= 3 EnMin= -1100.19201799525     IErMin= 3 ErrMin= 4.62D-03
 ErrMax= 4.62D-03 EMaxC= 1.00D-01 BMatC= 1.93D-01 BMatP= 6.04D-01
 IDIUse=3 WtCom= 9.54D-01 WtEn= 4.62D-02
 Coeff-Com: -0.418D+00 0.915D+00 0.503D+00
 Coeff-En:   0.000D+00 0.000D+00 0.100D+01
 Coeff:     -0.399D+00 0.873D+00 0.526D+00
 Gap=     0.089 Goal=   None    Shift=    0.000
 Gap=     0.221 Goal=   None    Shift=    0.000
 RMSDP=4.26D-04 MaxDP=3.07D-02 DE=-3.09D-01 OVMax= 5.69D-02

 Cycle   4  Pass 0  IDiag  1:
 RMSU=  2.98D-04    CP:  1.00D+00  2.05D-01  8.66D-01
 E= -1100.23938529656     Delta-E=       -0.047367301310 Rises=F Damp=F
 DIIS: error= 1.31D-03 at cycle   4 NSaved=   4.
 NSaved= 4 IEnMin= 4 EnMin= -1100.23938529656     IErMin= 4 ErrMin= 1.31D-03
 ErrMax= 1.31D-03 EMaxC= 1.00D-01 BMatC= 1.39D-02 BMatP= 1.93D-01
 IDIUse=3 WtCom= 9.87D-01 WtEn= 1.31D-02
 Coeff-Com: -0.160D+00 0.305D+00 0.200D+00 0.655D+00
 Coeff-En:   0.000D+00 0.000D+00 0.000D+00 0.100D+01
 Coeff:     -0.158D+00 0.301D+00 0.198D+00 0.659D+00
 Gap=     0.074 Goal=   None    Shift=    0.000
 Gap=     0.218 Goal=   None    Shift=    0.000
 RMSDP=1.32D-04 MaxDP=6.93D-03 DE=-4.74D-02 OVMax= 1.97D-02

 Cycle   5  Pass 0  IDiag  1:
 RMSU=  9.47D-05    CP:  1.00D+00  2.07D-01  8.55D-01  1.10D+00
 E= -1100.24222821227     Delta-E=       -0.002842915711 Rises=F Damp=F
 DIIS: error= 8.55D-04 at cycle   5 NSaved=   5.
 NSaved= 5 IEnMin= 5 EnMin= -1100.24222821227     IErMin= 5 ErrMin= 8.55D-04
 ErrMax= 8.55D-04 EMaxC= 1.00D-01 BMatC= 4.93D-03 BMatP= 1.39D-02
 IDIUse=3 WtCom= 9.91D-01 WtEn= 8.55D-03
 Coeff-Com: -0.621D-01 0.105D+00 0.283D-01 0.349D+00 0.580D+00
 Coeff-En:   0.000D+00 0.000D+00 0.000D+00 0.615D-01 0.939D+00
 Coeff:     -0.616D-01 0.104D+00 0.280D-01 0.346D+00 0.583D+00
 Gap=     0.085 Goal=   None    Shift=    0.000
 Gap=     0.215 Goal=   None    Shift=    0.000
 RMSDP=6.00D-05 MaxDP=3.29D-03 DE=-2.84D-03 OVMax= 1.31D-02

 Cycle   6  Pass 0  IDiag  1:
 RMSU=  4.33D-05    CP:  1.00D+00  2.09D-01  8.66D-01  1.12D+00  7.91D-01
 E= -1100.24309749532     Delta-E=       -0.000869283046 Rises=F Damp=F
 DIIS: error= 4.13D-04 at cycle   6 NSaved=   6.
 NSaved= 6 IEnMin= 6 EnMin= -1100.24309749532     IErMin= 6 ErrMin= 4.13D-04
 ErrMax= 4.13D-04 EMaxC= 1.00D-01 BMatC= 6.40D-04 BMatP= 4.93D-03
 IDIUse=3 WtCom= 9.96D-01 WtEn= 4.13D-03
 Coeff-Com: -0.337D-02-0.610D-03-0.273D-01 0.683D-01 0.300D+00 0.663D+00
 Coeff-En:   0.000D+00 0.000D+00 0.000D+00 0.000D+00 0.000D+00 0.100D+01
 Coeff:     -0.335D-02-0.608D-03-0.272D-01 0.680D-01 0.298D+00 0.665D+00
 Gap=     0.084 Goal=   None    Shift=    0.000
 Gap=     0.215 Goal=   None    Shift=    0.000
 RMSDP=2.92D-05 MaxDP=2.28D-03 DE=-8.69D-04 OVMax= 8.23D-03

 Cycle   7  Pass 0  IDiag  1:
 RMSU=  1.69D-05    CP:  1.00D+00  2.08D-01  8.63D-01  1.15D+00  9.17D-01
                    CP:  1.02D+00
 E= -1100.24327573511     Delta-E=       -0.000178239790 Rises=F Damp=F
 DIIS: error= 2.11D-04 at cycle   7 NSaved=   7.
 NSaved= 7 IEnMin= 7 EnMin= -1100.24327573511     IErMin= 7 ErrMin= 2.11D-04
 ErrMax= 2.11D-04 EMaxC= 1.00D-01 BMatC= 1.62D-04 BMatP= 6.40D-04
 IDIUse=3 WtCom= 9.98D-01 WtEn= 2.11D-03
 Coeff-Com:  0.478D-02-0.101D-01-0.163D-01-0.206D-01 0.579D-01 0.377D+00
 Coeff-Com:  0.607D+00
 Coeff-En:   0.000D+00 0.000D+00 0.000D+00 0.000D+00 0.000D+00 0.000D+00
 Coeff-En:   0.100D+01
 Coeff:      0.477D-02-0.101D-01-0.163D-01-0.205D-01 0.578D-01 0.376D+00
 Coeff:      0.608D+00
 Gap=     0.086 Goal=   None    Shift=    0.000
 Gap=     0.214 Goal=   None    Shift=    0.000
 RMSDP=1.61D-05 MaxDP=1.29D-03 DE=-1.78D-04 OVMax= 5.72D-03

 Cycle   8  Pass 0  IDiag  1:
 RMSU=  9.60D-06    CP:  1.00D+00  2.08D-01  8.62D-01  1.15D+00  9.13D-01
                    CP:  1.22D+00  1.02D+00
 E= -1100.24332248646     Delta-E=       -0.000046751353 Rises=F Damp=F
 DIIS: error= 1.37D-04 at cycle   8 NSaved=   8.
 NSaved= 8 IEnMin= 8 EnMin= -1100.24332248646     IErMin= 8 ErrMin= 1.37D-04
 ErrMax= 1.37D-04 EMaxC= 1.00D-01 BMatC= 4.02D-05 BMatP= 1.62D-04
 IDIUse=3 WtCom= 9.99D-01 WtEn= 1.37D-03
 Coeff-Com:  0.331D-02-0.494D-02-0.397D-03-0.264D-01-0.441D-01 0.360D-01
 Coeff-Com:  0.343D+00 0.693D+00
 Coeff-En:   0.000D+00 0.000D+00 0.000D+00 0.000D+00 0.000D+00 0.000D+00
 Coeff-En:   0.000D+00 0.100D+01
 Coeff:      0.330D-02-0.493D-02-0.396D-03-0.264D-01-0.440D-01 0.360D-01
 Coeff:      0.343D+00 0.693D+00
 Gap=     0.086 Goal=   None    Shift=    0.000
 Gap=     0.215 Goal=   None    Shift=    0.000
 RMSDP=1.10D-05 MaxDP=1.38D-03 DE=-4.68D-05 OVMax= 5.26D-03

 Cycle   9  Pass 0  IDiag  1:
 RMSU=  5.00D-06    CP:  1.00D+00  2.08D-01  8.63D-01  1.14D+00  9.18D-01
                    CP:  1.32D+00  1.37D+00  1.15D+00
 E= -1100.24333857416     Delta-E=       -0.000016087702 Rises=F Damp=F
 DIIS: error= 8.06D-05 at cycle   9 NSaved=   9.
 NSaved= 9 IEnMin= 9 EnMin= -1100.24333857416     IErMin= 9 ErrMin= 8.06D-05
 ErrMax= 8.06D-05 EMaxC= 1.00D-01 BMatC= 9.82D-06 BMatP= 4.02D-05
 IDIUse=1 WtCom= 1.00D+00 WtEn= 0.00D+00
 Coeff-Com:  0.966D-03-0.873D-03 0.413D-02-0.740D-02-0.360D-01-0.897D-01
 Coeff-Com: -0.750D-02 0.373D+00 0.764D+00
 Coeff:      0.966D-03-0.873D-03 0.413D-02-0.740D-02-0.360D-01-0.897D-01
 Coeff:     -0.750D-02 0.373D+00 0.764D+00
 Gap=     0.086 Goal=   None    Shift=    0.000
 Gap=     0.215 Goal=   None    Shift=    0.000
 RMSDP=6.01D-06 MaxDP=5.15D-04 DE=-1.61D-05 OVMax= 2.89D-03

 Initial convergence to 1.0D-05 achieved.  Increase integral accuracy.
 Cycle  10  Pass 1  IDiag  1:
 E= -1100.24372133873     Delta-E=       -0.000382764566 Rises=F Damp=F
 DIIS: error= 4.39D-05 at cycle   1 NSaved=   1.
 NSaved= 1 IEnMin= 1 EnMin= -1100.24372133873     IErMin= 1 ErrMin= 4.39D-05
 ErrMax= 4.39D-05 EMaxC= 1.00D-01 BMatC= 8.28D-06 BMatP= 8.28D-06
 IDIUse=1 WtCom= 1.00D+00 WtEn= 0.00D+00
 Coeff-Com:  0.100D+01
 Coeff:      0.100D+01
 Gap=     0.086 Goal=   None    Shift=    0.000
 Gap=     0.215 Goal=   None    Shift=    0.000
 RMSDP=6.01D-06 MaxDP=5.15D-04 DE=-3.83D-04 OVMax= 2.03D-03

 Cycle  11  Pass 1  IDiag  1:
 RMSU=  1.88D-05    CP:  1.00D+00
 E= -1100.24372261086     Delta-E=       -0.000001272133 Rises=F Damp=F
 DIIS: error= 3.84D-05 at cycle   2 NSaved=   2.
 NSaved= 2 IEnMin= 2 EnMin= -1100.24372261086     IErMin= 2 ErrMin= 3.84D-05
 ErrMax= 3.84D-05 EMaxC= 1.00D-01 BMatC= 5.04D-06 BMatP= 8.28D-06
 IDIUse=1 WtCom= 1.00D+00 WtEn= 0.00D+00
 Coeff-Com:  0.407D+00 0.593D+00
 Coeff:      0.407D+00 0.593D+00
 Gap=     0.086 Goal=   None    Shift=    0.000
 Gap=     0.215 Goal=   None    Shift=    0.000
 RMSDP=2.51D-06 MaxDP=1.91D-04 DE=-1.27D-06 OVMax= 7.69D-04

 Cycle  12  Pass 1  IDiag  1:
 RMSU=  1.96D-06    CP:  1.00D+00  1.01D+00
 E= -1100.24372326216     Delta-E=       -0.000000651303 Rises=F Damp=F
 DIIS: error= 3.96D-05 at cycle   3 NSaved=   3.
 NSaved= 3 IEnMin= 3 EnMin= -1100.24372326216     IErMin= 2 ErrMin= 3.84D-05
 ErrMax= 3.96D-05 EMaxC= 1.00D-01 BMatC= 2.30D-06 BMatP= 5.04D-06
 IDIUse=1 WtCom= 1.00D+00 WtEn= 0.00D+00
 Coeff-Com: -0.591D-02 0.400D+00 0.606D+00
 Coeff:     -0.591D-02 0.400D+00 0.606D+00
 Gap=     0.086 Goal=   None    Shift=    0.000
 Gap=     0.215 Goal=   None    Shift=    0.000
 RMSDP=1.83D-06 MaxDP=2.35D-04 DE=-6.51D-07 OVMax= 9.12D-04

 Cycle  13  Pass 1  IDiag  1:
 RMSU=  1.22D-06    CP:  1.00D+00  1.04D+00  5.62D-01
 E= -1100.24372388561     Delta-E=       -0.000000623445 Rises=F Damp=F
 DIIS: error= 7.85D-06 at cycle   4 NSaved=   4.
 NSaved= 4 IEnMin= 4 EnMin= -1100.24372388561     IErMin= 4 ErrMin= 7.85D-06
 ErrMax= 7.85D-06 EMaxC= 1.00D-01 BMatC= 1.99D-07 BMatP= 2.30D-06
 IDIUse=1 WtCom= 1.00D+00 WtEn= 0.00D+00
 Coeff-Com: -0.221D-01 0.187D+00 0.359D+00 0.476D+00
 Coeff:     -0.221D-01 0.187D+00 0.359D+00 0.476D+00
 Gap=     0.086 Goal=   None    Shift=    0.000
 Gap=     0.215 Goal=   None    Shift=    0.000
 RMSDP=4.39D-07 MaxDP=2.50D-05 DE=-6.23D-07 OVMax= 1.64D-04

 Cycle  14  Pass 1  IDiag  1:
 RMSU=  3.07D-07    CP:  1.00D+00  1.04D+00  5.84D-01  1.10D+00
 E= -1100.24372394557     Delta-E=       -0.000000059964 Rises=F Damp=F
 DIIS: error= 4.11D-06 at cycle   5 NSaved=   5.
 NSaved= 5 IEnMin= 5 EnMin= -1100.24372394557     IErMin= 5 ErrMin= 4.11D-06
 ErrMax= 4.11D-06 EMaxC= 1.00D-01 BMatC= 2.83D-08 BMatP= 1.99D-07
 IDIUse=1 WtCom= 1.00D+00 WtEn= 0.00D+00
 Coeff-Com: -0.478D-02-0.976D-01-0.665D-01 0.110D+00 0.106D+01
 Coeff:     -0.478D-02-0.976D-01-0.665D-01 0.110D+00 0.106D+01
 Gap=     0.086 Goal=   None    Shift=    0.000
 Gap=     0.215 Goal=   None    Shift=    0.000
 RMSDP=6.26D-07 MaxDP=7.18D-05 DE=-6.00D-08 OVMax= 3.53D-04

 Cycle  15  Pass 1  IDiag  1:
 RMSU=  1.68D-07    CP:  1.00D+00  1.05D+00  5.82D-01  1.52D+00  1.46D+00
 E= -1100.24372397376     Delta-E=       -0.000000028188 Rises=F Damp=F
 DIIS: error= 2.10D-06 at cycle   6 NSaved=   6.
 NSaved= 6 IEnMin= 6 EnMin= -1100.24372397376     IErMin= 6 ErrMin= 2.10D-06
 ErrMax= 2.10D-06 EMaxC= 1.00D-01 BMatC= 1.50D-08 BMatP= 2.83D-08
 IDIUse=1 WtCom= 1.00D+00 WtEn= 0.00D+00
 Coeff-Com:  0.440D-02-0.137D+00-0.164D+00-0.108D+00 0.712D+00 0.692D+00
 Coeff:      0.440D-02-0.137D+00-0.164D+00-0.108D+00 0.712D+00 0.692D+00
 Gap=     0.086 Goal=   None    Shift=    0.000
 Gap=     0.215 Goal=   None    Shift=    0.000
 RMSDP=3.68D-07 MaxDP=3.93D-05 DE=-2.82D-08 OVMax= 2.09D-04

 Cycle  16  Pass 1  IDiag  1:
 RMSU=  8.60D-08    CP:  1.00D+00  1.05D+00  5.75D-01  1.75D+00  1.84D+00
                    CP:  1.24D+00
 E= -1100.24372398201     Delta-E=       -0.000000008251 Rises=F Damp=F
 DIIS: error= 8.66D-07 at cycle   7 NSaved=   7.
 NSaved= 7 IEnMin= 7 EnMin= -1100.24372398201     IErMin= 7 ErrMin= 8.66D-07
 ErrMax= 8.66D-07 EMaxC= 1.00D-01 BMatC= 2.97D-09 BMatP= 1.50D-08
 IDIUse=1 WtCom= 1.00D+00 WtEn= 0.00D+00
 Coeff-Com:  0.319D-02-0.716D-01-0.909D-01-0.850D-01 0.287D+00 0.436D+00
 Coeff-Com:  0.521D+00
 Coeff:      0.319D-02-0.716D-01-0.909D-01-0.850D-01 0.287D+00 0.436D+00
 Coeff:      0.521D+00
 Gap=     0.086 Goal=   None    Shift=    0.000
 Gap=     0.215 Goal=   None    Shift=    0.000
 RMSDP=8.87D-08 MaxDP=8.63D-06 DE=-8.25D-09 OVMax= 4.57D-05

 Cycle  17  Pass 1  IDiag  1:
 RMSU=  2.61D-08    CP:  1.00D+00  1.05D+00  5.75D-01  1.81D+00  1.92D+00
                    CP:  1.39D+00  9.15D-01
 E= -1100.24372398281     Delta-E=       -0.000000000796 Rises=F Damp=F
 DIIS: error= 3.13D-07 at cycle   8 NSaved=   8.
 NSaved= 8 IEnMin= 8 EnMin= -1100.24372398281     IErMin= 8 ErrMin= 3.13D-07
 ErrMax= 3.13D-07 EMaxC= 1.00D-01 BMatC= 3.23D-10 BMatP= 2.97D-09
 IDIUse=1 WtCom= 1.00D+00 WtEn= 0.00D+00
 Coeff-Com:  0.945D-03-0.146D-01-0.194D-01-0.252D-01 0.288D-01 0.113D+00
 Coeff-Com:  0.283D+00 0.633D+00
 Coeff:      0.945D-03-0.146D-01-0.194D-01-0.252D-01 0.288D-01 0.113D+00
 Coeff:      0.283D+00 0.633D+00
 Gap=     0.086 Goal=   None    Shift=    0.000
 Gap=     0.215 Goal=   None    Shift=    0.000
 RMSDP=2.94D-08 MaxDP=2.99D-06 DE=-7.96D-10 OVMax= 1.51D-05

 Cycle  18  Pass 1  IDiag  1:
 RMSU=  1.08D-08    CP:  1.00D+00  1.05D+00  5.74D-01  1.82D+00  1.95D+00
                    CP:  1.44D+00  9.92D-01  8.74D-01
 E= -1100.24372398292     Delta-E=       -0.000000000108 Rises=F Damp=F
 DIIS: error= 9.48D-08 at cycle   9 NSaved=   9.
 NSaved= 9 IEnMin= 9 EnMin= -1100.24372398292     IErMin= 9 ErrMin= 9.48D-08
 ErrMax= 9.48D-08 EMaxC= 1.00D-01 BMatC= 4.67D-11 BMatP= 3.23D-10
 IDIUse=1 WtCom= 1.00D+00 WtEn= 0.00D+00
 Coeff-Com: -0.427D-04 0.432D-02 0.514D-02 0.130D-02-0.334D-01-0.166D-01
 Coeff-Com:  0.492D-01 0.312D+00 0.678D+00
 Coeff:     -0.427D-04 0.432D-02 0.514D-02 0.130D-02-0.334D-01-0.166D-01
 Coeff:      0.492D-01 0.312D+00 0.678D+00
 Gap=     0.086 Goal=   None    Shift=    0.000
 Gap=     0.215 Goal=   None    Shift=    0.000
 RMSDP=1.25D-08 MaxDP=1.12D-06 DE=-1.08D-10 OVMax= 6.01D-06

 Cycle  19  Pass 1  IDiag  1:
 RMSU=  4.03D-09    CP:  1.00D+00  1.05D+00  5.73D-01  1.83D+00  1.96D+00
                    CP:  1.47D+00  1.02D+00  9.97D-01  9.46D-01
 E= -1100.24372398290     Delta-E=        0.000000000013 Rises=F Damp=F
 DIIS: error= 5.38D-08 at cycle  10 NSaved=  10.
 NSaved=10 IEnMin= 9 EnMin= -1100.24372398292     IErMin=10 ErrMin= 5.38D-08
 ErrMax= 5.38D-08 EMaxC= 1.00D-01 BMatC= 6.90D-12 BMatP= 4.67D-11
 IDIUse=1 WtCom= 1.00D+00 WtEn= 0.00D+00
 Coeff-Com: -0.166D-03 0.413D-02 0.535D-02 0.451D-02-0.182D-01-0.250D-01
 Coeff-Com: -0.240D-01 0.268D-01 0.273D+00 0.753D+00
 Coeff:     -0.166D-03 0.413D-02 0.535D-02 0.451D-02-0.182D-01-0.250D-01
 Coeff:     -0.240D-01 0.268D-01 0.273D+00 0.753D+00
 Gap=     0.086 Goal=   None    Shift=    0.000
 Gap=     0.215 Goal=   None    Shift=    0.000
 RMSDP=4.97D-09 MaxDP=4.29D-07 DE= 1.27D-11 OVMax= 2.29D-06

 SCF Done:  E(UB3LYP) =  -1100.24372398     A.U. after   19 cycles
             Convg  =    0.4971D-08             -V/T =  2.0020
 <Sx>= 0.0000 <Sy>= 0.0000 <Sz>= 0.5000 <S**2>= 0.7645 S= 0.5072
 <L.S>= 0.000000000000E+00
 KE= 1.098049228668D+03 PE=-5.007691792049D+03 EE= 1.600330085517D+03
 Annihilation of the first spin contaminant:
 S**2 before annihilation     0.7645,   after     0.7501
 DiagDN has N=   622 LTot=  1898 but NE2=     3 cannot use DSYEVD.
 Leave Link  502 at Fri Feb 15 21:36:35 2013, MaxMem=  498073600 cpu:    7840.4
 (Enter /home/gaussian//g09/l801.exe)
 Range of M.O.s used for correlation:     1   622
 NBasis=   622 NAE=    61 NBE=    60 NFC=     0 NFV=     0
 NROrb=    622 NOA=    61 NOB=    60 NVA=   561 NVB=   562

 **** Warning!!: The largest alpha MO coefficient is  0.17622426D+02


 **** Warning!!: The smallest alpha delta epsilon is  0.86298954D-01


 **** Warning!!: The largest beta MO coefficient is  0.17925479D+02

 Leave Link  801 at Fri Feb 15 21:36:35 2013, MaxMem=  498073600 cpu:       0.1
 (Enter /home/gaussian//g09/l1002.exe)
 Minotr:  UHF open shell wavefunction.
          Direct CPHF calculation.
          Differentiating once with respect to magnetic field using GIAOs.
          Electric field/nuclear overlap derivatives assumed to be zero.
          Requested convergence is 1.0D-08 RMS, and 1.0D-07 maximum.
          Secondary convergence is 1.0D-12 RMS, and 1.0D-12 maximum.
          NewPWx=T KeepS1=F KeepF1=F KeepIn=T MapXYZ=F SortEE=F KeepMc=T.
          MDV=     498073380 using IRadAn=       2.
 Generate precomputed XC quadrature information.
          Solving linear equations simultaneously, MaxMat=       0.
 FoFCou: FMM=F IPFlag=           0 FMFlag=           0 FMFlg1=           0
         NFxFlg=           0 DoJE=F BraDBF=F KetDBF=T FulRan=T
         Omega=  0.000000  0.000000  1.000000  0.000000  0.000000 ICntrl=    6100 IOpCl=  0
         NMat0=    1 NMatS0=    1 NMatT0=    0 NMatD0=    1 NMtDS0=    0 NMtDT0=    0
         I1Cent=           7 NGrid=          27.
 Symmetry not used in FoFCou.
 Integrals replicated using symmetry in FoFDir.
 MinBra= 0 MaxBra= 3 Meth= 1.
 IRaf=       0 NMat=   3 IRICut=       1 DoRegI=T DoRafI=F ISym2E= 2 JSym2E=2.
          There are     3 degrees of freedom in the 1st order CPHF.  IDoFFX=0.
      3 vectors produced by pass  0 Test12= 2.26D-12 3.33D-08 XBig12= 8.80D+01 4.13D+00.
 AX will form     3 AO Fock derivatives at one time.
      3 vectors produced by pass  1 Test12= 2.26D-12 3.33D-08 XBig12= 1.59D+00 1.02D+00.
      3 vectors produced by pass  2 Test12= 2.26D-12 3.33D-08 XBig12= 3.17D-03 3.12D-02.
      3 vectors produced by pass  3 Test12= 2.26D-12 3.33D-08 XBig12= 2.12D-05 2.17D-03.
      3 vectors produced by pass  4 Test12= 2.26D-12 3.33D-08 XBig12= 7.31D-08 9.13D-05.
      3 vectors produced by pass  5 Test12= 2.26D-12 3.33D-08 XBig12= 2.99D-10 5.00D-06.
      3 vectors produced by pass  6 Test12= 2.26D-12 3.33D-08 XBig12= 1.12D-12 2.63D-07.
 Inverted reduced A of dimension    21 with in-core refinement.
 Calculating GIAO nuclear magnetic shielding tensors.
 SCF GIAO Magnetic shielding tensor (ppm):
  1  S    Isotropic =   518.2894   Anisotropy =   377.1968
   XX=   557.4835   YX=   158.3357   ZX=  -112.5220
   XY=   137.9637   YY=   515.4385   ZY=  -137.4026
   XZ=   -55.8695   YZ=  -136.9660   ZZ=   481.9461
   Eigenvalues:   349.3883   435.7260   769.7539
  2  N    Isotropic =   156.8024   Anisotropy =    80.0021
   XX=   167.5876   YX=   -39.5627   ZX=    -5.0609
   XY=   -62.6068   YY=   145.9823   ZY=    10.0390
   XZ=    -3.2486   YZ=     4.4234   ZZ=   156.8374
   Eigenvalues:   104.3969   155.8732   210.1372
  3  O    Isotropic =   352.7138   Anisotropy =    14.0776
   XX=   352.6816   YX=    -9.4891   ZX=    -5.2244
   XY=    -3.1703   YY=   353.9532   ZY=     0.4009
   XZ=    -4.9041   YZ=     3.8584   ZZ=   351.5065
   Eigenvalues:   345.6370   350.4054   362.0988
  4  O    Isotropic =    24.3824   Anisotropy =   453.6056
   XX=   -70.7982   YX=    38.5248   ZX=    74.5362
   XY=    -4.5250   YY=  -168.5285   ZY=   -19.9510
   XZ=    75.5370   YZ=    -3.7139   ZZ=   312.4740
   Eigenvalues:  -172.7418   -80.8970   326.7862
  5  N    Isotropic =   107.4228   Anisotropy =    74.7673
   XX=   140.6934   YX=    27.8174   ZX=    -0.4018
   XY=    48.3800   YY=    45.9571   ZY=   -20.0736
   XZ=     0.1297   YZ=   -24.6361   ZZ=   135.6180
   Eigenvalues:    28.3907   136.6100   157.2677
  6  N    Isotropic =   237.4946   Anisotropy =    78.6234
   XX=   261.8144   YX=   -32.4747   ZX=   -11.4698
   XY=   -39.8696   YY=   234.6509   ZY=     8.9500
   XZ=   -17.5426   YZ=     1.7386   ZZ=   216.0185
   Eigenvalues:   207.1335   215.4402   289.9102
  7  O    Isotropic =   213.0960   Anisotropy =   145.2475
   XX=   191.8886   YX=    41.9831   ZX=    41.9289
   XY=    25.5553   YY=   166.4244   ZY=   -60.8699
   XZ=    24.6223   YZ=   -60.5332   ZZ=   280.9749
   Eigenvalues:   114.5025   214.8578   309.9276
  8  C    Isotropic =    70.5223   Anisotropy =    86.1999
   XX=    68.6316   YX=    25.9442   ZX=    14.7982
   XY=    42.6800   YY=    18.6314   ZY=   -17.5820
   XZ=    12.6030   YZ=   -11.9373   ZZ=   124.3040
   Eigenvalues:    -1.8048    85.3829   127.9889
  9  C    Isotropic =    95.2817   Anisotropy =    85.2573
   XX=    86.9056   YX=   -33.6219   ZX=    15.8495
   XY=   -37.5373   YY=    53.8451   ZY=     0.5655
   XZ=    21.6399   YZ=    -2.8412   ZZ=   145.0944
   Eigenvalues:    30.3954   103.3298   152.1199
 10  H    Isotropic =    29.4240   Anisotropy =     8.6764
   XX=    33.8562   YX=    -1.9556   ZX=     0.9126
   XY=    -3.2937   YY=    29.8853   ZY=     0.6539
   XZ=     1.4089   YZ=     0.8805   ZZ=    24.5306
   Eigenvalues:    24.1586    28.9052    35.2083
 11  C    Isotropic =   100.1274   Anisotropy =   102.4097
   XX=   115.1478   YX=     2.8848   ZX=    12.4724
   XY=    -2.2441   YY=    20.5765   ZY=   -13.8710
   XZ=    10.3837   YZ=   -13.8866   ZZ=   164.6579
   Eigenvalues:    19.2310   112.7506   168.4005
 12  H    Isotropic =    30.1962   Anisotropy =     5.8547
   XX=    34.0266   YX=     0.1723   ZX=    -0.2285
   XY=    -1.6237   YY=    26.3807   ZY=    -0.3415
   XZ=    -0.1048   YZ=    -0.3988   ZZ=    30.1813
   Eigenvalues:    26.2746    30.2146    34.0993
 13  C    Isotropic =    30.6488   Anisotropy =    76.3405
   XX=   -45.6051   YX=     9.4759   ZX=    25.9743
   XY=    10.7077   YY=    60.4883   ZY=    -2.8178
   XZ=    20.4691   YZ=     3.5249   ZZ=    77.0631
   Eigenvalues:   -50.7289    61.1328    81.5425
 14  C    Isotropic =    96.9030   Anisotropy =    53.3164
   XX=   117.7242   YX=    19.4092   ZX=    -8.4822
   XY=    13.0819   YY=    78.9707   ZY=   -25.9335
   XZ=   -11.9063   YZ=   -18.3650   ZZ=    94.0141
   Eigenvalues:    62.0253    96.2365   132.4473
 15  H    Isotropic =    28.5269   Anisotropy =     5.1334
   XX=    29.1786   YX=     1.8908   ZX=     0.8422
   XY=     1.6490   YY=    27.7412   ZY=     2.8538
   XZ=     0.8359   YZ=     2.1854   ZZ=    28.6610
   Eigenvalues:    25.4261    28.2055    31.9492
 16  C    Isotropic =   147.0682   Anisotropy =    52.2971
   XX=   133.4150   YX=     7.5383   ZX=    30.7205
   XY=    24.9971   YY=   141.9621   ZY=    -5.5322
   XZ=    24.9741   YZ=    -9.0347   ZZ=   165.8276
   Eigenvalues:   108.1023   151.1695   181.9329
 17  H    Isotropic =    31.7417   Anisotropy =    11.3144
   XX=    29.3395   YX=    -2.8237   ZX=     2.2406
   XY=    -1.8346   YY=    38.6052   ZY=     1.6854
   XZ=     2.4849   YZ=     1.8969   ZZ=    27.2804
   Eigenvalues:    25.1532    30.7872    39.2846
 18  H    Isotropic =    31.7558   Anisotropy =     9.6743
   XX=    33.0382   YX=     4.5169   ZX=    -0.2331
   XY=     4.6629   YY=    31.9114   ZY=    -3.5651
   XZ=    -1.4909   YZ=    -3.1897   ZZ=    30.3178
   Eigenvalues:    26.5592    30.5029    38.2053
 19  C    Isotropic =   135.3597   Anisotropy =    59.0930
   XX=   140.1084   YX=   -20.4550   ZX=   -24.2525
   XY=   -18.5966   YY=   155.5404   ZY=     9.4702
   XZ=   -18.6453   YZ=     7.2984   ZZ=   110.4303
   Eigenvalues:    99.1316   132.1925   174.7550
 20  H    Isotropic =    31.1774   Anisotropy =     9.0476
   XX=    37.0676   YX=     1.8465   ZX=    -0.1175
   XY=    -0.2500   YY=    30.9423   ZY=     0.0916
   XZ=    -1.4369   YZ=     1.4360   ZZ=    25.5223
   Eigenvalues:    25.3503    30.9728    37.2092
 21  H    Isotropic =    30.8411   Anisotropy =     8.1408
   XX=    29.7141   YX=     1.1419   ZX=    -6.4114
   XY=     0.5645   YY=    31.1892   ZY=    -0.4443
   XZ=    -4.0915   YZ=    -1.1472   ZZ=    31.6202
   Eigenvalues:    25.3262    30.9289    36.2683
 22  C    Isotropic =    88.1825   Anisotropy =    72.8023
   XX=    94.7871   YX=    40.4720   ZX=    27.8585
   XY=    30.8538   YY=    58.5561   ZY=    -4.5211
   XZ=    29.0670   YZ=    -9.4769   ZZ=   111.2044
   Eigenvalues:    30.9013    96.9289   136.7174
 23  H    Isotropic =    28.7002   Anisotropy =     7.2132
   XX=    33.0171   YX=    -1.7806   ZX=    -1.9944
   XY=    -0.1744   YY=    24.4521   ZY=    -0.2810
   XZ=    -0.8347   YZ=    -0.5388   ZZ=    28.6315
   Eigenvalues:    24.2650    28.3267    33.5091
 24  H    Isotropic =    32.8796   Anisotropy =     5.8142
   XX=    36.4891   YX=     2.2864   ZX=    -0.6208
   XY=    -0.3440   YY=    32.3938   ZY=     0.2418
   XZ=    -0.6286   YZ=     0.0339   ZZ=    29.7560
   Eigenvalues:    29.6787    32.2044    36.7557
 25  H    Isotropic =    38.3321   Anisotropy =    24.4514
   XX=    28.7824   YX=     0.8695   ZX=     2.4847
   XY=    -0.4749   YY=    34.3934   ZY=     7.1125
   XZ=     2.6495   YZ=     7.2373   ZZ=    51.8205
   Eigenvalues:    28.4091    31.9542    54.6330
 26  H    Isotropic =    33.3608   Anisotropy =    14.2421
   XX=    41.5922   YX=     5.1259   ZX=    -2.7886
   XY=     0.2010   YY=    30.3507   ZY=    -0.0354
   XZ=    -3.3083   YZ=    -1.3518   ZZ=    28.1395
   Eigenvalues:    27.4753    29.7516    42.8555
 27  H    Isotropic =    33.8727   Anisotropy =    13.9092
   XX=    31.9421   YX=    -6.5118   ZX=    -0.9496
   XY=     1.4997   YY=    42.5847   ZY=    -0.7670
   XZ=    -0.6530   YZ=     0.5260   ZZ=    27.0913
   Eigenvalues:    26.9439    31.5287    43.1455
 g value of the free electron [g_e]: 0.20023193D+01
 relativistic mass correction [g_RMC]:-0.19241771D-03
 diamagnetic correction to g tensor [g_DC]:
   XX= 0.55281533D-04   YX=-0.15557927D-04   ZX=-0.11026906D-04
   XY=-0.16955652D-04   YY= 0.58350558D-04   ZY=-0.32991742D-06
   XZ=-0.13156392D-04   YZ= 0.33456378D-05   ZZ= 0.69510550D-05
 orbital Zeeman and spin-orbit coupling contribution to g tensor [g_OZ/SOC]:
   XX= 0.12758663D-02   YX= 0.16428926D-03   ZX=-0.38557088D-04
   XY= 0.18050133D-03   YY= 0.10066487D-02   ZY= 0.14567884D-03
   XZ=-0.31073177D-03   YZ= 0.50582099D-04   ZZ=-0.56917415D-03
 g tensor [g = g_e + g_RMC + g_DC + g_OZ/SOC]:
   XX= 0.20034580D+01   YX= 0.14873134D-03   ZX=-0.49583994D-04
   XY= 0.16354568D-03   YY= 0.20031919D+01   ZY= 0.14534892D-03
   XZ=-0.32388817D-03   YZ= 0.53927737D-04   ZZ= 0.20015647D+01
 g shifts relative to the free electron (ppm):
   xx=         -780.8   yy=          818.1   zz=         1219.4
 End of Minotr Frequency-dependent properties file   721 does not exist.
 End of Minotr Frequency-dependent properties file   722 does not exist.
 Leave Link 1002 at Fri Feb 15 22:22:02 2013, MaxMem=  498073600 cpu:   10889.4
 (Enter /home/gaussian//g09/l601.exe)
 Copying SCF densities to generalized density rwf, IOpCl= 1 IROHF=0.

 **********************************************************************

            Population analysis using the SCF density.

 **********************************************************************

 Orbital symmetries:
 Alpha Orbitals:
       Occupied  (A) (A) (A) (A) (A) (A) (A) (A) (A) (A) (A) (A)
                 (A) (A) (A) (A) (A) (A) (A) (A) (A) (A) (A) (A)
                 (A) (A) (A) (A) (A) (A) (A) (A) (A) (A) (A) (A)
                 (A) (A) (A) (A) (A) (A) (A) (A) (A) (A) (A) (A)
                 (A) (A) (A) (A) (A) (A) (A) (A) (A) (A) (A) (A)
                 (A)
       Virtual   (A) (A) (A) (A) (A) (A) (A) (A) (A) (A) (A) (A)
                 (A) (A) (A) (A) (A) (A) (A) (A) (A) (A) (A) (A)
                 (A) (A) (A) (A) (A) (A) (A) (A) (A) (A) (A) (A)
                 (A) (A) (A) (A) (A) (A) (A) (A) (A) (A) (A) (A)
                 (A) (A) (A) (A) (A) (A) (A) (A) (A) (A) (A) (A)
                 (A) (A) (A) (A) (A) (A) (A) (A) (A) (A) (A) (A)
                 (A) (A) (A) (A) (A) (A) (A) (A) (A) (A) (A) (A)
                 (A) (A) (A) (A) (A) (A) (A) (A) (A) (A) (A) (A)
                 (A) (A) (A) (A) (A) (A) (A) (A) (A) (A) (A) (A)
                 (A) (A) (A) (A) (A) (A) (A) (A) (A) (A) (A) (A)
                 (A) (A) (A) (A) (A) (A) (A) (A) (A) (A) (A) (A)
                 (A) (A) (A) (A) (A) (A) (A) (A) (A) (A) (A) (A)
                 (A) (A) (A) (A) (A) (A) (A) (A) (A) (A) (A) (A)
                 (A) (A) (A) (A) (A) (A) (A) (A) (A) (A) (A) (A)
                 (A) (A) (A) (A) (A) (A) (A) (A) (A) (A) (A) (A)
                 (A) (A) (A) (A) (A) (A) (A) (A) (A) (A) (A) (A)
                 (A) (A) (A) (A) (A) (A) (A) (A) (A) (A) (A) (A)
                 (A) (A) (A) (A) (A) (A) (A) (A) (A) (A) (A) (A)
                 (A) (A) (A) (A) (A) (A) (A) (A) (A) (A) (A) (A)
                 (A) (A) (A) (A) (A) (A) (A) (A) (A) (A) (A) (A)
                 (A) (A) (A) (A) (A) (A) (A) (A) (A) (A) (A) (A)
                 (A) (A) (A) (A) (A) (A) (A) (A) (A) (A) (A) (A)
                 (A) (A) (A) (A) (A) (A) (A) (A) (A) (A) (A) (A)
                 (A) (A) (A) (A) (A) (A) (A) (A) (A) (A) (A) (A)
                 (A) (A) (A) (A) (A) (A) (A) (A) (A) (A) (A) (A)
                 (A) (A) (A) (A) (A) (A) (A) (A) (A) (A) (A) (A)
                 (A) (A) (A) (A) (A) (A) (A) (A) (A) (A) (A) (A)
                 (A) (A) (A) (A) (A) (A) (A) (A) (A) (A) (A) (A)
                 (A) (A) (A) (A) (A) (A) (A) (A) (A) (A) (A) (A)
                 (A) (A) (A) (A) (A) (A) (A) (A) (A) (A) (A) (A)
                 (A) (A) (A) (A) (A) (A) (A) (A) (A) (A) (A) (A)
                 (A) (A) (A) (A) (A) (A) (A) (A) (A) (A) (A) (A)
                 (A) (A) (A) (A) (A) (A) (A) (A) (A) (A) (A) (A)
                 (A) (A) (A) (A) (A) (A) (A) (A) (A) (A) (A) (A)
                 (A) (A) (A) (A) (A) (A) (A) (A) (A) (A) (A) (A)
                 (A) (A) (A) (A) (A) (A) (A) (A) (A) (A) (A) (A)
                 (A) (A) (A) (A) (A) (A) (A) (A) (A) (A) (A) (A)
                 (A) (A) (A) (A) (A) (A) (A) (A) (A) (A) (A) (A)
                 (A) (A) (A) (A) (A) (A) (A) (A) (A) (A) (A) (A)
                 (A) (A) (A) (A) (A) (A) (A) (A) (A) (A) (A) (A)
                 (A) (A) (A) (A) (A) (A) (A) (A) (A) (A) (A) (A)
                 (A) (A) (A) (A) (A) (A) (A) (A) (A) (A) (A) (A)
                 (A) (A) (A) (A) (A) (A) (A) (A) (A) (A) (A) (A)
                 (A) (A) (A) (A) (A) (A) (A) (A) (A) (A) (A) (A)
                 (A) (A) (A) (A) (A) (A) (A) (A) (A) (A) (A) (A)
                 (A) (A) (A) (A) (A) (A) (A) (A) (A) (A) (A) (A)
                 (A) (A) (A) (A) (A) (A) (A) (A) (A)
 Beta  Orbitals:
       Occupied  (A) (A) (A) (A) (A) (A) (A) (A) (A) (A) (A) (A)
                 (A) (A) (A) (A) (A) (A) (A) (A) (A) (A) (A) (A)
                 (A) (A) (A) (A) (A) (A) (A) (A) (A) (A) (A) (A)
                 (A) (A) (A) (A) (A) (A) (A) (A) (A) (A) (A) (A)
                 (A) (A) (A) (A) (A) (A) (A) (A) (A) (A) (A) (A)
       Virtual   (A) (A) (A) (A) (A) (A) (A) (A) (A) (A) (A) (A)
                 (A) (A) (A) (A) (A) (A) (A) (A) (A) (A) (A) (A)
                 (A) (A) (A) (A) (A) (A) (A) (A) (A) (A) (A) (A)
                 (A) (A) (A) (A) (A) (A) (A) (A) (A) (A) (A) (A)
                 (A) (A) (A) (A) (A) (A) (A) (A) (A) (A) (A) (A)
                 (A) (A) (A) (A) (A) (A) (A) (A) (A) (A) (A) (A)
                 (A) (A) (A) (A) (A) (A) (A) (A) (A) (A) (A) (A)
                 (A) (A) (A) (A) (A) (A) (A) (A) (A) (A) (A) (A)
                 (A) (A) (A) (A) (A) (A) (A) (A) (A) (A) (A) (A)
                 (A) (A) (A) (A) (A) (A) (A) (A) (A) (A) (A) (A)
                 (A) (A) (A) (A) (A) (A) (A) (A) (A) (A) (A) (A)
                 (A) (A) (A) (A) (A) (A) (A) (A) (A) (A) (A) (A)
                 (A) (A) (A) (A) (A) (A) (A) (A) (A) (A) (A) (A)
                 (A) (A) (A) (A) (A) (A) (A) (A) (A) (A) (A) (A)
                 (A) (A) (A) (A) (A) (A) (A) (A) (A) (A) (A) (A)
                 (A) (A) (A) (A) (A) (A) (A) (A) (A) (A) (A) (A)
                 (A) (A) (A) (A) (A) (A) (A) (A) (A) (A) (A) (A)
                 (A) (A) (A) (A) (A) (A) (A) (A) (A) (A) (A) (A)
                 (A) (A) (A) (A) (A) (A) (A) (A) (A) (A) (A) (A)
                 (A) (A) (A) (A) (A) (A) (A) (A) (A) (A) (A) (A)
                 (A) (A) (A) (A) (A) (A) (A) (A) (A) (A) (A) (A)
                 (A) (A) (A) (A) (A) (A) (A) (A) (A) (A) (A) (A)
                 (A) (A) (A) (A) (A) (A) (A) (A) (A) (A) (A) (A)
                 (A) (A) (A) (A) (A) (A) (A) (A) (A) (A) (A) (A)
                 (A) (A) (A) (A) (A) (A) (A) (A) (A) (A) (A) (A)
                 (A) (A) (A) (A) (A) (A) (A) (A) (A) (A) (A) (A)
                 (A) (A) (A) (A) (A) (A) (A) (A) (A) (A) (A) (A)
                 (A) (A) (A) (A) (A) (A) (A) (A) (A) (A) (A) (A)
                 (A) (A) (A) (A) (A) (A) (A) (A) (A) (A) (A) (A)
                 (A) (A) (A) (A) (A) (A) (A) (A) (A) (A) (A) (A)
                 (A) (A) (A) (A) (A) (A) (A) (A) (A) (A) (A) (A)
                 (A) (A) (A) (A) (A) (A) (A) (A) (A) (A) (A) (A)
                 (A) (A) (A) (A) (A) (A) (A) (A) (A) (A) (A) (A)
                 (A) (A) (A) (A) (A) (A) (A) (A) (A) (A) (A) (A)
                 (A) (A) (A) (A) (A) (A) (A) (A) (A) (A) (A) (A)
                 (A) (A) (A) (A) (A) (A) (A) (A) (A) (A) (A) (A)
                 (A) (A) (A) (A) (A) (A) (A) (A) (A) (A) (A) (A)
                 (A) (A) (A) (A) (A) (A) (A) (A) (A) (A) (A) (A)
                 (A) (A) (A) (A) (A) (A) (A) (A) (A) (A) (A) (A)
                 (A) (A) (A) (A) (A) (A) (A) (A) (A) (A) (A) (A)
                 (A) (A) (A) (A) (A) (A) (A) (A) (A) (A) (A) (A)
                 (A) (A) (A) (A) (A) (A) (A) (A) (A) (A) (A) (A)
                 (A) (A) (A) (A) (A) (A) (A) (A) (A) (A) (A) (A)
                 (A) (A) (A) (A) (A) (A) (A) (A) (A) (A) (A) (A)
                 (A) (A) (A) (A) (A) (A) (A) (A) (A) (A) (A) (A)
                 (A) (A) (A) (A) (A) (A) (A) (A) (A) (A) (A) (A)
                 (A) (A) (A) (A) (A) (A) (A) (A) (A) (A)
 The electronic state is 2-A.
 Alpha  occ. eigenvalues --  -88.88594 -19.14801 -19.11647 -19.08912 -14.34392
 Alpha  occ. eigenvalues --  -14.33707 -14.31196 -10.29924 -10.26187 -10.24954
 Alpha  occ. eigenvalues --  -10.22210 -10.21120 -10.18474 -10.14253 -10.12469
 Alpha  occ. eigenvalues --   -7.93803  -5.90246  -5.89946  -5.89280  -1.07292
 Alpha  occ. eigenvalues --   -1.06543  -1.05292  -0.99873  -0.94404  -0.92001
 Alpha  occ. eigenvalues --   -0.81813  -0.80643  -0.76708  -0.72085  -0.68327
 Alpha  occ. eigenvalues --   -0.67285  -0.63450  -0.62094  -0.59360  -0.57436
 Alpha  occ. eigenvalues --   -0.55005  -0.54093  -0.52830  -0.50964  -0.49714
 Alpha  occ. eigenvalues --   -0.49262  -0.47783  -0.46643  -0.45315  -0.44396
 Alpha  occ. eigenvalues --   -0.43611  -0.40601  -0.39324  -0.38913  -0.38462
 Alpha  occ. eigenvalues --   -0.35988  -0.35235  -0.33399  -0.32410  -0.30562
 Alpha  occ. eigenvalues --   -0.28831  -0.28590  -0.27195  -0.23989  -0.22103
 Alpha  occ. eigenvalues --   -0.07941
 Alpha virt. eigenvalues --    0.00689   0.02269   0.03091   0.04373   0.04967
 Alpha virt. eigenvalues --    0.06959   0.07423   0.08416   0.09641   0.09758
 Alpha virt. eigenvalues --    0.10713   0.10812   0.11869   0.12956   0.13053
 Alpha virt. eigenvalues --    0.13930   0.15780   0.15985   0.17327   0.18442
 Alpha virt. eigenvalues --    0.19535   0.19647   0.21348   0.23191   0.23737
 Alpha virt. eigenvalues --    0.24674   0.25320   0.26030   0.27035   0.28752
 Alpha virt. eigenvalues --    0.29426   0.29741   0.30644   0.31572   0.32414
 Alpha virt. eigenvalues --    0.32568   0.32975   0.34313   0.35420   0.36040
 Alpha virt. eigenvalues --    0.36624   0.37393   0.37785   0.38729   0.39136
 Alpha virt. eigenvalues --    0.40211   0.40747   0.41481   0.42701   0.42882
 Alpha virt. eigenvalues --    0.43312   0.44092   0.45230   0.45543   0.46247
 Alpha virt. eigenvalues --    0.46875   0.47192   0.47605   0.48212   0.48939
 Alpha virt. eigenvalues --    0.49460   0.49714   0.49937   0.51542   0.51793
 Alpha virt. eigenvalues --    0.52328   0.53009   0.53582   0.54339   0.55296
 Alpha virt. eigenvalues --    0.56115   0.57870   0.58437   0.58898   0.59496
 Alpha virt. eigenvalues --    0.61637   0.62399   0.63350   0.64377   0.65158
 Alpha virt. eigenvalues --    0.65513   0.67703   0.68528   0.69584   0.70809
 Alpha virt. eigenvalues --    0.71499   0.72115   0.72251   0.73997   0.74651
 Alpha virt. eigenvalues --    0.75442   0.76687   0.77386   0.77626   0.79055
 Alpha virt. eigenvalues --    0.79851   0.80486   0.81129   0.81362   0.82832
 Alpha virt. eigenvalues --    0.83418   0.85014   0.85505   0.86437   0.87524
 Alpha virt. eigenvalues --    0.87944   0.88815   0.89605   0.91094   0.91845
 Alpha virt. eigenvalues --    0.93349   0.93790   0.94150   0.94556   0.96081
 Alpha virt. eigenvalues --    0.97718   0.98190   0.98833   1.00654   1.02453
 Alpha virt. eigenvalues --    1.02749   1.04410   1.05562   1.06602   1.07073
 Alpha virt. eigenvalues --    1.08268   1.08479   1.09116   1.10212   1.11010
 Alpha virt. eigenvalues --    1.11975   1.12268   1.13310   1.14252   1.15429
 Alpha virt. eigenvalues --    1.15966   1.16603   1.19627   1.19997   1.21136
 Alpha virt. eigenvalues --    1.22302   1.23597   1.24547   1.25126   1.25805
 Alpha virt. eigenvalues --    1.25979   1.26625   1.30289   1.30915   1.31677
 Alpha virt. eigenvalues --    1.33351   1.33968   1.35802   1.36220   1.36478
 Alpha virt. eigenvalues --    1.37144   1.38031   1.39743   1.40816   1.41385
 Alpha virt. eigenvalues --    1.41729   1.42525   1.43551   1.46157   1.47166
 Alpha virt. eigenvalues --    1.47793   1.49072   1.49528   1.51202   1.52319
 Alpha virt. eigenvalues --    1.54943   1.56496   1.56900   1.57936   1.60596
 Alpha virt. eigenvalues --    1.62438   1.62742   1.63695   1.65195   1.65914
 Alpha virt. eigenvalues --    1.66605   1.68233   1.68841   1.70302   1.71634
 Alpha virt. eigenvalues --    1.72850   1.73323   1.74154   1.75568   1.76252
 Alpha virt. eigenvalues --    1.76910   1.77779   1.78936   1.80676   1.81926
 Alpha virt. eigenvalues --    1.83731   1.84034   1.86753   1.87727   1.90807
 Alpha virt. eigenvalues --    1.92236   1.93001   1.95056   1.97019   1.98437
 Alpha virt. eigenvalues --    1.99272   2.00298   2.01868   2.03285   2.05613
 Alpha virt. eigenvalues --    2.05926   2.07536   2.08966   2.10020   2.11467
 Alpha virt. eigenvalues --    2.12579   2.14572   2.15411   2.16187   2.17740
 Alpha virt. eigenvalues --    2.19365   2.20993   2.23312   2.23573   2.25611
 Alpha virt. eigenvalues --    2.26447   2.28852   2.30102   2.31266   2.34037
 Alpha virt. eigenvalues --    2.35603   2.36801   2.37988   2.39905   2.40801
 Alpha virt. eigenvalues --    2.41242   2.44518   2.46142   2.49282   2.49911
 Alpha virt. eigenvalues --    2.51561   2.53021   2.55382   2.57123   2.58602
 Alpha virt. eigenvalues --    2.59563   2.60429   2.62242   2.63926   2.64961
 Alpha virt. eigenvalues --    2.66194   2.67439   2.69276   2.70536   2.71960
 Alpha virt. eigenvalues --    2.75638   2.76410   2.77837   2.78946   2.79398
 Alpha virt. eigenvalues --    2.79531   2.80296   2.83125   2.83882   2.85278
 Alpha virt. eigenvalues --    2.86471   2.87996   2.88608   2.90387   2.92179
 Alpha virt. eigenvalues --    2.93240   2.93487   2.94500   2.95058   2.95849
 Alpha virt. eigenvalues --    2.97180   2.98028   2.98662   2.99527   3.00029
 Alpha virt. eigenvalues --    3.00669   3.02189   3.03448   3.03955   3.04440
 Alpha virt. eigenvalues --    3.05332   3.06331   3.07069   3.07599   3.09376
 Alpha virt. eigenvalues --    3.10400   3.11638   3.12781   3.13087   3.13644
 Alpha virt. eigenvalues --    3.15414   3.15990   3.16505   3.17046   3.17269
 Alpha virt. eigenvalues --    3.19343   3.19749   3.20707   3.22073   3.22617
 Alpha virt. eigenvalues --    3.22945   3.23951   3.24399   3.25081   3.25513
 Alpha virt. eigenvalues --    3.26524   3.27602   3.29202   3.30053   3.30676
 Alpha virt. eigenvalues --    3.31793   3.33456   3.34334   3.35447   3.35615
 Alpha virt. eigenvalues --    3.38740   3.39168   3.40695   3.41038   3.43392
 Alpha virt. eigenvalues --    3.43602   3.44415   3.45262   3.47397   3.48169
 Alpha virt. eigenvalues --    3.49012   3.50342   3.51886   3.53894   3.54173
 Alpha virt. eigenvalues --    3.55596   3.56531   3.57316   3.57912   3.58869
 Alpha virt. eigenvalues --    3.59865   3.60994   3.61463   3.62021   3.62769
 Alpha virt. eigenvalues --    3.64656   3.65252   3.65938   3.68533   3.68815
 Alpha virt. eigenvalues --    3.70507   3.71367   3.72759   3.74318   3.75790
 Alpha virt. eigenvalues --    3.76970   3.78051   3.80530   3.81882   3.83583
 Alpha virt. eigenvalues --    3.84703   3.85964   3.87303   3.88147   3.89036
 Alpha virt. eigenvalues --    3.90949   3.91137   3.92043   3.94138   3.95581
 Alpha virt. eigenvalues --    3.96943   3.97369   3.99108   3.99922   4.00382
 Alpha virt. eigenvalues --    4.02415   4.02965   4.03115   4.03871   4.05559
 Alpha virt. eigenvalues --    4.06965   4.07776   4.08812   4.10118   4.10498
 Alpha virt. eigenvalues --    4.11641   4.13219   4.13695   4.14473   4.18634
 Alpha virt. eigenvalues --    4.18828   4.19988   4.21067   4.21488   4.22713
 Alpha virt. eigenvalues --    4.23130   4.25529   4.26028   4.27610   4.27953
 Alpha virt. eigenvalues --    4.30959   4.32191   4.32794   4.33518   4.34481
 Alpha virt. eigenvalues --    4.35765   4.36466   4.37982   4.40002   4.40299
 Alpha virt. eigenvalues --    4.42089   4.43727   4.44368   4.46470   4.47450
 Alpha virt. eigenvalues --    4.48774   4.50684   4.50931   4.52441   4.53962
 Alpha virt. eigenvalues --    4.55772   4.57484   4.57783   4.59617   4.62325
 Alpha virt. eigenvalues --    4.65253   4.67778   4.70014   4.71659   4.74556
 Alpha virt. eigenvalues --    4.77937   4.79330   4.80229   4.82030   4.83144
 Alpha virt. eigenvalues --    4.84812   4.85645   4.89389   4.91458   4.94616
 Alpha virt. eigenvalues --    4.95899   4.97703   5.02029   5.03469   5.04390
 Alpha virt. eigenvalues --    5.06190   5.06576   5.07820   5.08375   5.09046
 Alpha virt. eigenvalues --    5.10330   5.12307   5.12648   5.13106   5.15768
 Alpha virt. eigenvalues --    5.17279   5.18487   5.19704   5.20819   5.23249
 Alpha virt. eigenvalues --    5.24485   5.26788   5.28774   5.29627   5.30701
 Alpha virt. eigenvalues --    5.31132   5.33043   5.34413   5.35182   5.36639
 Alpha virt. eigenvalues --    5.37943   5.39215   5.39652   5.41426   5.43556
 Alpha virt. eigenvalues --    5.47061   5.49473   5.52246   5.54318   5.57000
 Alpha virt. eigenvalues --    5.57871   5.61436   5.63793   5.65537   5.67750
 Alpha virt. eigenvalues --    5.69464   5.71118   5.71812   5.74092   5.75361
 Alpha virt. eigenvalues --    5.77089   5.77554   5.79956   5.81146   5.81417
 Alpha virt. eigenvalues --    5.85457   5.85863   5.89772   5.95723   5.96875
 Alpha virt. eigenvalues --    5.98591   5.98907   6.01855   6.04315   6.08357
 Alpha virt. eigenvalues --    6.09076   6.10924   6.13020   6.14304   6.15912
 Alpha virt. eigenvalues --    6.19434   6.23892   6.25628   6.27223   6.33764
 Alpha virt. eigenvalues --    6.35215   6.36551   6.38107   6.38408   6.42954
 Alpha virt. eigenvalues --    6.45050   6.51251   6.52924   6.55767   6.59524
 Alpha virt. eigenvalues --    6.68181   6.70004   6.81145   6.82041   6.82405
 Alpha virt. eigenvalues --    6.86670   6.88371   6.90275   7.02695   7.03293
 Alpha virt. eigenvalues --    7.09380   7.10062   7.17266   7.19533   7.27464
 Alpha virt. eigenvalues --    7.29527   7.33198   7.41526   7.43924   7.54141
 Alpha virt. eigenvalues --    7.63350   7.74384   9.95839  11.08419  11.16931
 Alpha virt. eigenvalues --   12.23207  12.37279  13.08334  13.48329  13.66995
 Alpha virt. eigenvalues --   13.73251  13.95237  14.37643  14.61839  15.44155
 Alpha virt. eigenvalues --   16.44926
  Beta  occ. eigenvalues --  -88.88592 -19.14801 -19.11646 -19.08916 -14.34203
  Beta  occ. eigenvalues --  -14.33503 -14.30972 -10.29937 -10.26196 -10.24951
  Beta  occ. eigenvalues --  -10.21531 -10.21120 -10.18458 -10.13478 -10.12669
  Beta  occ. eigenvalues --   -7.93800  -5.90242  -5.89945  -5.89273  -1.07252
  Beta  occ. eigenvalues --   -1.06445  -1.05247  -0.99306  -0.93960  -0.91486
  Beta  occ. eigenvalues --   -0.81795  -0.80514  -0.76146  -0.71961  -0.67408
  Beta  occ. eigenvalues --   -0.66936  -0.63373  -0.62052  -0.59123  -0.57319
  Beta  occ. eigenvalues --   -0.54951  -0.53845  -0.52690  -0.50714  -0.49416
  Beta  occ. eigenvalues --   -0.49176  -0.47693  -0.46237  -0.44804  -0.44160
  Beta  occ. eigenvalues --   -0.43491  -0.40450  -0.38849  -0.38064  -0.37754
  Beta  occ. eigenvalues --   -0.35760  -0.35050  -0.33221  -0.30946  -0.30362
  Beta  occ. eigenvalues --   -0.28533  -0.27640  -0.27078  -0.23927  -0.20968
  Beta virt. eigenvalues --    0.00548   0.01461   0.02894   0.03188   0.04403
  Beta virt. eigenvalues --    0.05014   0.06982   0.07437   0.08459   0.09688
  Beta virt. eigenvalues --    0.09820   0.10782   0.10885   0.11892   0.13095
  Beta virt. eigenvalues --    0.13897   0.15253   0.15888   0.16121   0.17384
  Beta virt. eigenvalues --    0.18556   0.19643   0.20010   0.21623   0.23482
  Beta virt. eigenvalues --    0.23826   0.24828   0.25674   0.26292   0.27191
  Beta virt. eigenvalues --    0.28984   0.29633   0.29907   0.30857   0.31851
  Beta virt. eigenvalues --    0.32587   0.32892   0.33291   0.34506   0.35457
  Beta virt. eigenvalues --    0.36059   0.36730   0.37524   0.37925   0.39002
  Beta virt. eigenvalues --    0.39421   0.40487   0.41127   0.41675   0.42966
  Beta virt. eigenvalues --    0.43277   0.43595   0.44157   0.45348   0.45941
  Beta virt. eigenvalues --    0.46380   0.47050   0.47248   0.47716   0.48406
  Beta virt. eigenvalues --    0.49418   0.49727   0.49909   0.50240   0.51604
  Beta virt. eigenvalues --    0.52076   0.52461   0.53187   0.54166   0.54563
  Beta virt. eigenvalues --    0.55465   0.56291   0.58022   0.58791   0.59027
  Beta virt. eigenvalues --    0.59772   0.61901   0.62647   0.63531   0.64618
  Beta virt. eigenvalues --    0.65323   0.65715   0.67950   0.68690   0.69773
  Beta virt. eigenvalues --    0.71237   0.71604   0.72281   0.72496   0.74127
  Beta virt. eigenvalues --    0.74964   0.75617   0.76930   0.77633   0.77809
  Beta virt. eigenvalues --    0.79406   0.80047   0.80660   0.81360   0.81639
  Beta virt. eigenvalues --    0.82930   0.83651   0.85175   0.85684   0.86701
  Beta virt. eigenvalues --    0.87705   0.88145   0.88989   0.89893   0.91212
  Beta virt. eigenvalues --    0.91921   0.93492   0.93948   0.94400   0.94685
  Beta virt. eigenvalues --    0.96130   0.97798   0.98357   0.98952   1.00808
  Beta virt. eigenvalues --    1.02616   1.02841   1.04602   1.05744   1.06928
  Beta virt. eigenvalues --    1.07223   1.08377   1.08625   1.09422   1.10306
  Beta virt. eigenvalues --    1.11252   1.12138   1.12339   1.13405   1.14371
  Beta virt. eigenvalues --    1.15558   1.16071   1.16750   1.19771   1.20097
  Beta virt. eigenvalues --    1.21309   1.22395   1.23865   1.24680   1.25204
  Beta virt. eigenvalues --    1.25957   1.26200   1.26823   1.30416   1.31056
  Beta virt. eigenvalues --    1.31934   1.33555   1.34210   1.35949   1.36323
  Beta virt. eigenvalues --    1.36624   1.37294   1.38177   1.39804   1.41020
  Beta virt. eigenvalues --    1.41585   1.41860   1.42676   1.43937   1.46254
  Beta virt. eigenvalues --    1.47306   1.48130   1.49280   1.49692   1.51601
  Beta virt. eigenvalues --    1.52594   1.55150   1.56631   1.56988   1.58212
  Beta virt. eigenvalues --    1.60703   1.62501   1.63011   1.64018   1.65533
  Beta virt. eigenvalues --    1.66019   1.66677   1.68430   1.68945   1.70426
  Beta virt. eigenvalues --    1.71757   1.73159   1.73824   1.74341   1.75697
  Beta virt. eigenvalues --    1.76347   1.77039   1.77974   1.79100   1.80808
  Beta virt. eigenvalues --    1.82182   1.83984   1.84330   1.86894   1.87913
  Beta virt. eigenvalues --    1.91022   1.92318   1.93222   1.95394   1.97177
  Beta virt. eigenvalues --    1.98593   1.99610   2.00351   2.02089   2.03802
  Beta virt. eigenvalues --    2.05817   2.06412   2.07682   2.08994   2.10168
  Beta virt. eigenvalues --    2.11798   2.12862   2.14660   2.16334   2.16581
  Beta virt. eigenvalues --    2.17941   2.20156   2.21370   2.23618   2.23788
  Beta virt. eigenvalues --    2.25793   2.26614   2.28972   2.30428   2.31495
  Beta virt. eigenvalues --    2.34237   2.36306   2.37406   2.38594   2.40196
  Beta virt. eigenvalues --    2.41055   2.41611   2.44773   2.46318   2.49461
  Beta virt. eigenvalues --    2.50174   2.51975   2.53476   2.55617   2.57354
  Beta virt. eigenvalues --    2.58896   2.59826   2.60877   2.62488   2.64197
  Beta virt. eigenvalues --    2.65084   2.66547   2.67730   2.69354   2.70712
  Beta virt. eigenvalues --    2.72218   2.75823   2.76767   2.78297   2.79447
  Beta virt. eigenvalues --    2.79790   2.80450   2.80726   2.83553   2.84300
  Beta virt. eigenvalues --    2.86259   2.86957   2.88233   2.88782   2.91078
  Beta virt. eigenvalues --    2.92549   2.93619   2.93920   2.94862   2.95281
  Beta virt. eigenvalues --    2.96096   2.97345   2.98297   2.98764   2.99846
  Beta virt. eigenvalues --    3.00307   3.01007   3.02325   3.03786   3.04144
  Beta virt. eigenvalues --    3.04998   3.05681   3.06688   3.07422   3.08243
  Beta virt. eigenvalues --    3.09700   3.10726   3.11908   3.13058   3.13554
  Beta virt. eigenvalues --    3.14410   3.15845   3.16337   3.16666   3.17349
  Beta virt. eigenvalues --    3.17874   3.19687   3.19918   3.21313   3.22277
  Beta virt. eigenvalues --    3.22930   3.23220   3.24158   3.24632   3.25400
  Beta virt. eigenvalues --    3.25856   3.26798   3.27783   3.29698   3.30394
  Beta virt. eigenvalues --    3.30807   3.32322   3.33695   3.34553   3.35787
  Beta virt. eigenvalues --    3.36071   3.39020   3.39443   3.40864   3.41613
  Beta virt. eigenvalues --    3.43677   3.43876   3.44619   3.45603   3.47722
  Beta virt. eigenvalues --    3.48545   3.49287   3.50532   3.52070   3.54102
  Beta virt. eigenvalues --    3.54610   3.55765   3.56687   3.57482   3.58262
  Beta virt. eigenvalues --    3.59024   3.59955   3.61210   3.61607   3.62176
  Beta virt. eigenvalues --    3.62973   3.64795   3.65403   3.66130   3.68802
  Beta virt. eigenvalues --    3.69077   3.70697   3.71436   3.72995   3.74466
  Beta virt. eigenvalues --    3.75890   3.77027   3.78133   3.80572   3.82046
  Beta virt. eigenvalues --    3.83813   3.84824   3.86111   3.87472   3.88271
  Beta virt. eigenvalues --    3.89283   3.91160   3.91342   3.92141   3.94244
  Beta virt. eigenvalues --    3.96126   3.97063   3.97573   3.99251   4.00096
  Beta virt. eigenvalues --    4.00490   4.02630   4.03072   4.03300   4.04040
  Beta virt. eigenvalues --    4.05670   4.07129   4.07888   4.09028   4.10334
  Beta virt. eigenvalues --    4.10680   4.11790   4.13575   4.13899   4.14647
  Beta virt. eigenvalues --    4.18705   4.19025   4.20085   4.21229   4.21578
  Beta virt. eigenvalues --    4.22755   4.23345   4.25801   4.26216   4.27784
  Beta virt. eigenvalues --    4.28175   4.31124   4.32423   4.32899   4.33576
[...]
     3  O    0.000076   0.000012   0.000023   0.000064  -0.000008   0.000000
     4  O    0.000000   0.000000   0.000000   0.000000   0.000000   0.000128
     5  N    0.000164  -0.000013   0.000028   0.001218  -0.000036  -0.000064
     6  N    0.000000   0.000000   0.000000   0.000000   0.000000   0.000941
     7  O    0.000013   0.000051  -0.000340  -0.000235  -0.000032   0.000001
     8  C    0.000004   0.000000  -0.000003   0.000000   0.000000  -0.002075
     9  C   -0.000973   0.000114  -0.000169  -0.001774   0.000042   0.000179
    10  H    0.000327  -0.000135   0.000713   0.000751  -0.000031   0.000060
    11  C    0.000024  -0.000002  -0.000005   0.000037  -0.000001   0.000116
    12  H   -0.000001   0.000000  -0.000003  -0.000002   0.000000  -0.000018
    13  C    0.000001   0.000000  -0.000003  -0.000041   0.000001  -0.000189
    14  C   -0.000134   0.000035  -0.000197  -0.001403   0.000046  -0.000094
    15  H    0.000009  -0.000002   0.000017   0.000316  -0.000027   0.000008
    16  C   -0.000363   0.000057  -0.000137  -0.003611   0.000093   0.000000
    17  H    0.000116  -0.000021   0.000044   0.001375  -0.000093   0.000003
    18  H   -0.000007   0.000001  -0.000001  -0.000124   0.000010  -0.000001
    19  C    0.001685  -0.000680  -0.000211   0.000403   0.000046   0.000000
    20  H   -0.000680   0.000522  -0.000611   0.000177  -0.000007   0.000000
    21  H   -0.000211  -0.000611   0.002005  -0.000184   0.000001   0.000000
    22  C    0.000403   0.000177  -0.000184   0.002702   0.000104   0.000000
    23  H    0.000046  -0.000007   0.000001   0.000104  -0.000167   0.000000
    24  H    0.000000   0.000000   0.000000   0.000000   0.000000  -0.001867
    25  H   -0.000579   0.000359  -0.000458  -0.000045   0.000010   0.000000
    26  H    0.000000   0.000000   0.000000   0.000000   0.000000  -0.000267
    27  H    0.000000   0.000000   0.000000   0.000000   0.000000   0.000033
             25         26         27
     1  S    0.000184   0.000000   0.000000
     2  N    0.000001   0.000777  -0.000043
     3  O    0.000012   0.000000   0.000000
     4  O    0.000000   0.000000   0.000000
     5  N   -0.000166   0.000013  -0.000008
     6  N    0.000001   0.006245   0.003261
     7  O    0.000049   0.000000   0.000000
     8  C   -0.000015  -0.001205  -0.001112
     9  C    0.002146  -0.000058   0.000003
    10  H   -0.001163  -0.000023   0.000028
    11  C   -0.000157  -0.000543   0.000676
    12  H    0.000023   0.000041  -0.000071
    13  C    0.000002   0.000001  -0.000002
    14  C    0.000172   0.000004  -0.000002
    15  H   -0.000004   0.000000   0.000000
    16  C    0.000098   0.000000   0.000000
    17  H   -0.000026   0.000000   0.000000
    18  H    0.000002   0.000000   0.000000
    19  C   -0.000579   0.000000   0.000000
    20  H    0.000359   0.000000   0.000000
    21  H   -0.000458   0.000000   0.000000
    22  C   -0.000045   0.000000   0.000000
    23  H    0.000010   0.000000   0.000000
    24  H    0.000000  -0.000267   0.000033
    25  H    0.001136   0.000000   0.000000
    26  H    0.000000  -0.002876  -0.000309
    27  H    0.000000  -0.000309  -0.003978
 Mulliken atomic spin densities:
              1
     1  S    0.003985
     2  N    0.072246
     3  O    0.000262
     4  O   -0.000985
     5  N    0.061959
     6  N    0.085900
     7  O    0.000402
     8  C    0.394814
     9  C    0.508459
    10  H   -0.012265
    11  C   -0.123634
    12  H    0.003218
    13  C   -0.001535
    14  C   -0.005171
    15  H    0.000892
    16  C    0.004373
    17  H    0.002643
    18  H   -0.000285
    19  C   -0.000738
    20  H    0.000159
    21  H    0.000328
    22  C    0.000564
    23  H   -0.000060
    24  H    0.002612
    25  H    0.001583
    26  H    0.001798
    27  H   -0.001524
 Sum of Mulliken atomic spin densities =   1.00000
 Electronic spatial extent (au):  <R**2>=           3532.8779
 Charge=              0.0000 electrons
 Dipole moment (field-independent basis, Debye):
    X=             -0.4182    Y=              1.7049    Z=              0.9396  Tot=              1.9911
 Quadrupole moment (field-independent basis, Debye-Ang):
   XX=            -64.5477   YY=            -96.2757   ZZ=            -97.5263
   XY=             -7.3105   XZ=             -4.8424   YZ=              2.5219
 Traceless Quadrupole moment (field-independent basis, Debye-Ang):
   XX=             21.5689   YY=            -10.1591   ZZ=            -11.4098
   XY=             -7.3105   XZ=             -4.8424   YZ=              2.5219
 Octapole moment (field-independent basis, Debye-Ang**2):
  XXX=            -77.5054  YYY=             30.2367  ZZZ=             -3.9227  XYY=              8.4655
  XXY=             42.4302  XXZ=              4.7784  XZZ=              1.7309  YZZ=              0.2447
  YYZ=             11.1481  XYZ=              5.8191
 Hexadecapole moment (field-independent basis, Debye-Ang**3):
 XXXX=          -2300.1240 YYYY=          -1146.5309 ZZZZ=           -372.6388 XXXY=            -16.6885
 XXXZ=           -124.1917 YYYX=           -106.0548 YYYZ=             26.1209 ZZZX=            -12.1800
 ZZZY=              6.9415 XXYY=           -632.0589 XXZZ=           -589.1170 YYZZ=           -235.6853
 XXYZ=             33.1274 YYXZ=             -6.7240 ZZXY=             33.2401
 N-N= 1.209068753881D+03 E-N=-7.498545478897D+03  KE= 1.646170496437D+03
                          Isotropic Fermi Contact Couplings
        Atom                 a.u.       MegaHertz       Gauss      10(-4) cm-1
     1  S(33)              0.00240       0.82488       0.29434       0.27515
     2  N(14)             -0.00187      -0.60325      -0.21525      -0.20122
     3  O(17)              0.00011      -0.06572      -0.02345      -0.02192
     4  O(17)             -0.00035       0.21404       0.07638       0.07140
     5  N(14)             -0.00203      -0.65529      -0.23382      -0.21858
     6  N(14)             -0.00464      -1.49902      -0.53489      -0.50002
     7  O(17)             -0.00063       0.38164       0.13618       0.12730
     8  C(13)              0.00797       8.96146       3.19767       2.98922
     9  C(13)              0.01151      12.94021       4.61739       4.31639
    10  H(1)              -0.00818     -36.54636     -13.04065     -12.19055
    11  C(13)             -0.02443     -27.46017      -9.79847      -9.15973
    12  H(1)               0.00130       5.80136       2.07007       1.93513
    13  C(13)             -0.00538      -6.05191      -2.15947      -2.01870
    14  C(13)             -0.00246      -2.76469      -0.98651      -0.92220
    15  H(1)               0.00057       2.55682       0.91234       0.85286
    16  C(13)              0.01091      12.25934       4.37444       4.08927
    17  H(1)               0.00027       1.20170       0.42879       0.40084
    18  H(1)               0.00020       0.90022       0.32122       0.30028
    19  C(13)             -0.00004      -0.05045      -0.01800      -0.01683
    20  H(1)               0.00001       0.05765       0.02057       0.01923
    21  H(1)               0.00000       0.02231       0.00796       0.00744
    22  C(13)              0.00138       1.54974       0.55299       0.51694
    23  H(1)              -0.00003      -0.11591      -0.04136      -0.03866
    24  H(1)              -0.00177      -7.92054      -2.82624      -2.64201
    25  H(1)               0.00002       0.07735       0.02760       0.02580
    26  H(1)              -0.00200      -8.95036      -3.19371      -2.98552
    27  H(1)              -0.00150      -6.70750      -2.39340      -2.23738
 --------------------------------------------------------
       Center         ----  Spin Dipole Couplings  ----
                      3XX-RR        3YY-RR        3ZZ-RR
 --------------------------------------------------------
     1   Atom        0.026679     -0.014772     -0.011907
     2   Atom       -0.124922     -0.128340      0.253263
     3   Atom        0.003110     -0.001335     -0.001775
     4   Atom       -0.006929      0.006440      0.000489
     5   Atom       -0.110930     -0.116939      0.227869
     6   Atom       -0.122035     -0.153682      0.275717
     7   Atom        0.003031     -0.000692     -0.002339
     8   Atom       -0.252781     -0.282716      0.535497
     9   Atom       -0.280575     -0.331455      0.612030
    10   Atom        0.017435     -0.033321      0.015886
    11   Atom        0.066358      0.044323     -0.110681
    12   Atom        0.010249      0.000274     -0.010523
    13   Atom        0.003002      0.001765     -0.004767
    14   Atom        0.002363      0.002262     -0.004625
    15   Atom       -0.000373      0.002351     -0.001978
    16   Atom        0.000588      0.001339     -0.001926
    17   Atom        0.000464      0.001024     -0.001488
    18   Atom       -0.000852      0.001765     -0.000913
    19   Atom        0.002962     -0.001463     -0.001499
    20   Atom        0.001716     -0.000829     -0.000886
    21   Atom        0.002087     -0.001130     -0.000956
    22   Atom        0.003586     -0.001876     -0.001710
    23   Atom        0.002001     -0.000932     -0.001069
    24   Atom        0.006811     -0.005058     -0.001754
    25   Atom        0.002223     -0.000783     -0.001440
    26   Atom        0.013001     -0.013400      0.000399
    27   Atom       -0.014840      0.018917     -0.004077
 --------------------------------------------------------
                        XY            XZ            YZ
 --------------------------------------------------------
     1   Atom       -0.004595     -0.004630      0.000872
     2   Atom       -0.004020      0.061899     -0.028676
     3   Atom        0.003739     -0.001954     -0.001337
     4   Atom       -0.000197      0.004188     -0.000205
     5   Atom       -0.009389      0.079299     -0.031863
     6   Atom       -0.006775      0.086619     -0.004681
     7   Atom        0.000294     -0.003631     -0.002566
     8   Atom       -0.016401      0.156026     -0.084092
     9   Atom       -0.010386      0.203172     -0.066579
    10   Atom        0.043138      0.001803     -0.013567
    11   Atom        0.000623     -0.039725      0.016233
    12   Atom        0.001647     -0.004314      0.000489
    13   Atom        0.001429     -0.003111     -0.000502
    14   Atom       -0.004906     -0.001400      0.001726
    15   Atom       -0.004275     -0.002062      0.002714
    16   Atom       -0.005291      0.003090     -0.004133
    17   Atom       -0.002348      0.000349     -0.000328
    18   Atom       -0.002427      0.000907     -0.002963
    19   Atom        0.000691     -0.000291     -0.000073
    20   Atom        0.000463      0.000064     -0.000016
    21   Atom        0.000685     -0.000915     -0.000220
    22   Atom       -0.000645     -0.001298     -0.000747
    23   Atom       -0.000855     -0.000415      0.000089
    24   Atom        0.017191      0.000354     -0.002650
    25   Atom        0.002401      0.001378      0.000798
    26   Atom        0.013484     -0.002382     -0.002612
    27   Atom       -0.005717      0.003088      0.003098
 --------------------------------------------------------


 ---------------------------------------------------------------------------------
              Anisotropic Spin Dipole Couplings in Principal Axis System
 ---------------------------------------------------------------------------------

       Atom             a.u.   MegaHertz   Gauss  10(-4) cm-1        Axes

              Baa    -0.0153    -0.628    -0.224    -0.210  0.0944  0.9877 -0.1244
     1 S(33)  Bbb    -0.0124    -0.509    -0.182    -0.170  0.1298  0.1117  0.9852
              Bcc     0.0277     1.137     0.406     0.379  0.9870 -0.1091 -0.1177
 
              Baa    -0.1349    -5.201    -1.856    -1.735  0.9786 -0.1229 -0.1651
     2 N(14)  Bbb    -0.1304    -5.029    -1.795    -1.678  0.1331  0.9897  0.0525
              Bcc     0.2653    10.231     3.651     3.413  0.1570 -0.0734  0.9849
 
              Baa    -0.0035     0.253     0.090     0.084 -0.4443  0.8781  0.1777
     3 O(17)  Bbb    -0.0025     0.178     0.064     0.059  0.3414 -0.0175  0.9398
              Bcc     0.0060    -0.431    -0.154    -0.144  0.8283  0.4782 -0.2920
 
              Baa    -0.0088     0.638     0.228     0.213  0.9119  0.0063 -0.4103
     4 O(17)  Bbb     0.0024    -0.171    -0.061    -0.057  0.4091  0.0653  0.9101
              Bcc     0.0065    -0.467    -0.167    -0.156 -0.0325  0.9978 -0.0570
 
              Baa    -0.1291    -4.980    -1.777    -1.661  0.9529  0.2359 -0.1906
     5 N(14)  Bbb    -0.1194    -4.605    -1.643    -1.536 -0.2121  0.9676  0.1372
              Bcc     0.2485     9.585     3.420     3.197  0.2168 -0.0903  0.9720
 
              Baa    -0.1558    -6.009    -2.144    -2.004  0.3349  0.9405 -0.0570
     6 N(14)  Bbb    -0.1380    -5.324    -1.900    -1.776  0.9199 -0.3394 -0.1964
              Bcc     0.2938    11.333     4.044     3.780  0.2041 -0.0133  0.9789
 
              Baa    -0.0052     0.379     0.135     0.127  0.3469  0.4437  0.8263
     7 O(17)  Bbb     0.0000    -0.001     0.000     0.000 -0.4243  0.8599 -0.2836
              Bcc     0.0052    -0.379    -0.135    -0.126  0.8364  0.2522 -0.4866
 
              Baa    -0.2913   -39.090   -13.948   -13.039  0.0582  0.9942  0.0901
     8 C(13)  Bbb    -0.2825   -37.912   -13.528   -12.646  0.9807 -0.0401 -0.1912
              Bcc     0.5738    77.002    27.476    25.685  0.1865 -0.0995  0.9774
 
              Baa    -0.3373   -45.257   -16.149   -15.096 -0.2787  0.9520  0.1264
     9 C(13)  Bbb    -0.3234   -43.398   -15.485   -14.476  0.9369  0.2985 -0.1822
              Bcc     0.6607    88.654    31.634    29.572  0.2112 -0.0676  0.9751
 
              Baa    -0.0601   -32.073   -11.445   -10.698 -0.4824  0.8603  0.1650
    10 H(1)   Bbb     0.0170     9.052     3.230     3.019  0.2536 -0.0431  0.9663
              Bcc     0.0431    23.021     8.215     7.679  0.8384  0.5080 -0.1974
 
              Baa    -0.1207   -16.202    -5.781    -5.404  0.2070 -0.0965  0.9736
    11 C(13)  Bbb     0.0456     6.121     2.184     2.042  0.1125  0.9909  0.0743
              Bcc     0.0751    10.081     3.597     3.363  0.9718 -0.0942 -0.2160
 
              Baa    -0.0114    -6.103    -2.178    -2.036  0.1996 -0.0689  0.9774
    12 H(1)   Bbb     0.0001     0.064     0.023     0.021 -0.1206  0.9882  0.0942
              Bcc     0.0113     6.039     2.155     2.015  0.9724  0.1367 -0.1890
 
              Baa    -0.0059    -0.786    -0.281    -0.262  0.3313  0.0000  0.9435
    13 C(13)  Bbb     0.0010     0.137     0.049     0.046 -0.4169  0.8971  0.1464
              Bcc     0.0048     0.650     0.232     0.217  0.8464  0.4419 -0.2972
 
              Baa    -0.0050    -0.677    -0.242    -0.226  0.0575 -0.1927  0.9796
    14 C(13)  Bbb    -0.0026    -0.345    -0.123    -0.115  0.7153  0.6924  0.0942
              Bcc     0.0076     1.022     0.365     0.341  0.6964 -0.6953 -0.1776
 
              Baa    -0.0035    -1.875    -0.669    -0.625  0.8338  0.4913  0.2517
    15 H(1)   Bbb    -0.0033    -1.753    -0.625    -0.585 -0.0113 -0.4407  0.8976
              Bcc     0.0068     3.628     1.294     1.210 -0.5519  0.7513  0.3620
 
              Baa    -0.0049    -0.654    -0.233    -0.218  0.2979  0.6916  0.6580
    16 C(13)  Bbb    -0.0039    -0.519    -0.185    -0.173  0.7421  0.2657 -0.6153
              Bcc     0.0087     1.173     0.418     0.391 -0.6004  0.6716 -0.4341
 
              Baa    -0.0016    -0.874    -0.312    -0.292  0.7145  0.5822 -0.3880
    17 H(1)   Bbb    -0.0015    -0.810    -0.289    -0.270  0.2289  0.3296  0.9160
              Bcc     0.0032     1.685     0.601     0.562 -0.6612  0.7432 -0.1022
 
              Baa    -0.0031    -1.637    -0.584    -0.546  0.3967  0.6163  0.6803
    18 H(1)   Bbb    -0.0017    -0.933    -0.333    -0.311  0.8213  0.0927 -0.5629
              Bcc     0.0048     2.570     0.917     0.857 -0.4100  0.7820 -0.4694
 
              Baa    -0.0016    -0.212    -0.076    -0.071 -0.1108  0.9034  0.4142
    19 C(13)  Bbb    -0.0015    -0.202    -0.072    -0.067  0.1213 -0.4013  0.9079
              Bcc     0.0031     0.414     0.148     0.138  0.9864  0.1508 -0.0651
 
              Baa    -0.0009    -0.495    -0.177    -0.165 -0.1570  0.8210  0.5488
    20 H(1)   Bbb    -0.0009    -0.464    -0.166    -0.155  0.0767 -0.5439  0.8356
              Bcc     0.0018     0.960     0.342     0.320  0.9846  0.1733  0.0224
 
              Baa    -0.0013    -0.685    -0.244    -0.229 -0.0790  0.9156  0.3942
    21 H(1)   Bbb    -0.0012    -0.640    -0.228    -0.214  0.3185 -0.3515  0.8803
              Bcc     0.0025     1.325     0.473     0.442  0.9446  0.1951 -0.2638
 
              Baa    -0.0028    -0.380    -0.136    -0.127  0.2098  0.6851  0.6976
    22 C(13)  Bbb    -0.0011    -0.146    -0.052    -0.049 -0.0899  0.7240 -0.6839
              Bcc     0.0039     0.527     0.188     0.176  0.9736 -0.0808 -0.2135
 
              Baa    -0.0012    -0.626    -0.223    -0.209  0.2868  0.8680  0.4054
    23 H(1)   Bbb    -0.0011    -0.594    -0.212    -0.198  0.0043 -0.4244  0.9055
              Bcc     0.0023     1.220     0.435     0.407  0.9580 -0.2580 -0.1254
 
              Baa    -0.0177    -9.423    -3.362    -3.143 -0.5700  0.8084  0.1473
    24 H(1)   Bbb    -0.0015    -0.788    -0.281    -0.263  0.1344 -0.0852  0.9873
              Bcc     0.0191    10.211     3.644     3.406  0.8106  0.5825 -0.0601
 
              Baa    -0.0021    -1.129    -0.403    -0.377 -0.4478  0.8845 -0.1307
    25 H(1)   Bbb    -0.0019    -1.014    -0.362    -0.338 -0.3086 -0.0158  0.9511
              Bcc     0.0040     2.143     0.765     0.715  0.8392  0.4662  0.2800
 
              Baa    -0.0192   -10.235    -3.652    -3.414 -0.3805  0.9216  0.0767
    26 H(1)   Bbb     0.0000    -0.019    -0.007    -0.006  0.1851 -0.0054  0.9827
              Bcc     0.0192    10.254     3.659     3.420  0.9061  0.3881 -0.1685
 
              Baa    -0.0168    -8.957    -3.196    -2.988  0.9461  0.1751 -0.2726
    27 H(1)   Bbb    -0.0033    -1.784    -0.637    -0.595  0.2865 -0.0595  0.9562
              Bcc     0.0201    10.742     3.833     3.583 -0.1512  0.9827  0.1065
 

 ---------------------------------------------------------------------------------

 Calculating spin-rotation constants.
 Leave Link  601 at Fri Feb 15 22:22:25 2013, MaxMem=  498073600 cpu:      92.8
 (Enter /home/gaussian//g09/l9999.exe)
 1\1\GINC-STORM\SP\UB3LYP\CC-pVTZ\C8H12N3O3S1(2)\KENG\15-Feb-2013\0\\#p
  nmr b3lyp/cc-pvtz maxdisk=-1\\Salicilato de Lamivudina\\0,2\S,0,7.133
 3,1.3356,4.1555\N,0,11.7294,-0.9086,3.0235\O,0,7.4493,2.6309,1.3321\O,
 0,11.4251,-0.1637,5.1538\N,0,10.2992,0.8879,3.4675\N,0,12.0015,-1.761,
 0.9121\O,0,9.1857,2.936,3.7673\C,0,11.4418,-0.8879,1.699\C,0,9.9997,0.
 9478,2.1405\H,0,9.4142,1.6058,1.8419\C,0,10.5257,0.0832,1.241\H,0,10.2
 88,0.1277,0.3428\C,0,11.182,-0.0604,3.9748\C,0,9.6979,1.832,4.4643\H,0
 ,10.3925,2.1345,5.0855\C,0,8.5755,1.1602,5.2525\H,0,8.4258,1.6084,6.10
 01\H,0,8.7753,0.2257,5.4195\C,0,7.2591,3.5331,2.4124\H,0,6.316,3.7519,
 2.4744\H,0,7.7402,4.3537,2.2227\C,0,7.7204,2.9996,3.7433\H,0,7.4245,3.
 6168,4.4454\H,0,12.3115,-1.5046,3.2765\H,0,6.8145,2.1403,1.2524\H,0,12
 .5679,-2.4158,1.2018\H,0,11.8738,-1.6741,0.038\\Version=EM64L-G09RevA.
 01\State=2-A\HF=-1100.243724\S2=0.76449\S2-1=0.\S2A=0.750062\RMSD=4.97
 1e-09\Dipole=-0.2344885,-0.313947,-0.6782927\Quadrupole=0.663424,3.870
 6899,-4.5341139,-11.0134744,-5.6139232,8.2640676\PG=C01 [X(C8H12N3O3S1
 )]\\@


 "TIGER, TIGER BURNING BRIGHT
 IN THE FOREST OF THE NIGHT.
 WHAT IMMORTAL HAND OR EYE
 CAN FRAME THY FEARFUL SYMMETRYE?"
                     - WILLIAM BLAKE
 Job cpu time:  0 days  5 hours 14 minutes 11.5 seconds.
 File lengths (MBytes):  RWF=    384 Int=      0 D2E=      0 Chk=     29 Scr=      1
 Normal termination of Gaussian 09 at Fri Feb 15 22:22:26 2013.
